[
{
"numberOfEnergyLevels": 6,

"firstEnergyLevel": 2 ,
"secondEnergyLevel": 8 ,
"thirdEnergyLevel": 18 ,
"fourthEnergyLevel": 18 ,
"fifthEnergyLevel": 8 ,
"sixthEnergyLevel": 1,
"seventhEnergyLevel": null,

"Name": "Cesium ",
"Symbol": "Cs ",
"atomicNumber": "55 ",
"atomicMass": "132.90546 amu ",
"meltingPoint": "28.5 °C (301.65 K, 83.3 °F) ",
"boilingPoint": "678.4 °C (951.55005 K, 1253.12 °F) ",
"numberOfProtons": " 55 ",
"numberOfNeutrons": "78 ",
"classification": "alkali-metals",
"crystalStructure": "Cubic ",
"density@293K": "1.873 g/cm3 ",
"color": "silver ",
"dateOfDiscovery": "1860 ",
"discoverer": "Fustov Kirchoff ",
"nameOrigin": "From the Latin word caesius (sky blue) ",
"uses": "removes air traces in vacuum tubes ",
"obtainedFrom": "pollucite, lepidolite "
},
{
"numberOfEnergyLevels": 6,

"firstEnergyLevel": 2 ,
"secondEnergyLevel": 8 ,
"thirdEnergyLevel": 18 ,
"fourthEnergyLevel": 18 ,
"fifthEnergyLevel": 8 ,
"sixthEnergyLevel": 2,
"seventhEnergyLevel": null,

"Name": "Barium ",
"Symbol": "Ba ",
"atomicNumber": "56 ",
"atomicMass": "137.327 amu ",
"meltingPoint": "725.0 °C (998.15 K, 1337.0 °F) ",
"boilingPoint": "1140.0 °C (1413.15 K, 2084.0 °F) ",
"numberOfProtons": " 56 ",
"numberOfNeutrons": "81 ",
"classification": "alkaline-earth-metals",
"crystalStructure": "Cubic ",
"density@293K": "3.51 g/cm3 ",
"color": "Silver",
"dateOfDiscovery": "1808 ",
"discoverer": "Sir Humphrey Davy ",
"nameOrigin": "From the Greek word barys (heavy) ",
"uses": "Medical applications, among others ",
"obtainedFrom": "barytine, whiterite "
},
{
"numberOfEnergyLevels": null,
"firstEnergyLevel": null,
"secondEnergyLevel": null,
"thirdEnergyLevel": null,
"fourthEnergyLevel": null,
"fifthEnergyLevel": null,
"sixthEnergyLevel": null,
"seventhEnergyLevel": null,

"Name": "Lanthanoids",
"Symbol": "Ln",
"atomicNumber": "57 - 71",
"atomicMass": null,
"meltingPoint": null,
"boilingPoint": null,
"numberOfProtons": null,
"numberOfNeutrons": null, 
"classification": "lanthanoids",
"crystalStructure": null,
"density@293K": null,
"color": null,
"dateOfDiscovery": null,
"discoverer": null,
"nameOrigin": null,
"uses": null,
"obtainedFrom": null
},
{
"numberOfEnergyLevels": 6,

"firstEnergyLevel": 2 ,
"secondEnergyLevel": 8 ,
"thirdEnergyLevel": 18 ,
"fourthEnergyLevel": 32 ,
"fifthEnergyLevel": 10 ,
"sixthEnergyLevel": 2,
"seventhEnergyLevel": null,

"Name": "Hafnium ",
"Symbol": "Hf ",
"atomicNumber": "72 ",
"atomicMass": "178.49 amu ",
"meltingPoint": "2150.0 °C (2423.15 K, 3902.0 °F) ",
"boilingPoint": "5400.0 °C (5673.15 K, 9752.0 °F) ",
"numberOfProtons": " 72 ",
"numberOfNeutrons": "106 ",
"classification": "transition-metals",
"crystalStructure": "Hexagonal ",
"density@293K": "13.2 g/cm3 ",
"color": "Silver",
"dateOfDiscovery": "1923 ",
"discoverer": "Dirk Coster ",
"nameOrigin": "From the Latin word Hafnia (Copenhagen) ",
"uses": "nuclear reactors ",
"obtainedFrom": "zircon "
},
{
"numberOfEnergyLevels": 6,

"firstEnergyLevel": 2 ,
"secondEnergyLevel": 8 ,
"thirdEnergyLevel": 18 ,
"fourthEnergyLevel": 32 ,
"fifthEnergyLevel": 11 ,
"sixthEnergyLevel": 2,
"seventhEnergyLevel": null,

"Name": "Tantalum ",
"Symbol": "Ta ",
"atomicNumber": "73 ",
"atomicMass": "180.9479 amu ",
"meltingPoint": "2996.0 °C (3269.15 K, 5424.8 °F) ",
"boilingPoint": "5425.0 °C (5698.15 K, 9797.0 °F) ",
"numberOfProtons": " 73 ",
"numberOfNeutrons": "108 ",
"classification": "transition-metals",
"crystalStructure": "Cubic ",
"density@293K": "16.654 g/cm3 ",
"color": "gray",
"dateOfDiscovery": "1802 ",
"discoverer": "Anders Ekeberg ",
"nameOrigin": "After king Tantalus (Greek mythology) ",
"uses": "capacitors, camera lenses ",
"obtainedFrom": "tantalite "
},
{
"numberOfEnergyLevels": 6,

"firstEnergyLevel": 2 ,
"secondEnergyLevel": 8 ,
"thirdEnergyLevel": 18 ,
"fourthEnergyLevel": 32 ,
"fifthEnergyLevel": 12 ,
"sixthEnergyLevel": 2,
"seventhEnergyLevel": null,

"Name": "Tungsten ",
"Symbol": "W ",
"atomicNumber": "74 ",
"atomicMass": "183.84 amu ",
"meltingPoint": "3410.0 °C (3683.15 K, 6170.0 °F) ",
"boilingPoint": "5660.0 °C (5933.15 K, 10220.0 °F) ",
"numberOfProtons": " 74 ",
"numberOfNeutrons": "110 ",
"classification": "transition-metals",
"crystalStructure": "Cubic ",
"density@293K": "19.3 g/cm3 ",
"color": "Silver",
"dateOfDiscovery": "1783 ",
"discoverer": "Fausto and Juan Jose de Elhuyar ",
"nameOrigin": "From the Swedish words tung sten (heavy stone) ",
"symbolOrigin": "From wolfram (its German name) ",
"uses": "used widely in electronics industry ",
"obtainedFrom": "scheelite, wolframite "

},
{
"numberOfEnergyLevels": 6,

"firstEnergyLevel": 2 ,
"secondEnergyLevel": 8 ,
"thirdEnergyLevel": 18 ,
"fourthEnergyLevel": 32 ,
"fifthEnergyLevel": 13 ,
"sixthEnergyLevel": 2,
"seventhEnergyLevel": null,

"Name": "Rhenium ",
"Symbol": "Re ",
"atomicNumber": "75 ",
"atomicMass": "186.207 amu ",
"meltingPoint": "3180.0 °C (3453.15 K, 5756.0 °F) ",
"boilingPoint": "5627.0 °C (5900.15 K, 10160.6 °F) ",
"numberOfProtons": " 75 ",
"numberOfNeutrons": "111 ",
"classification": "transition-metals",
"crystalStructure": "Hexagonal ",
"density@293K": "21.02 g/cm3 ",
"color": "silverish",
"dateOfDiscovery": "1925 ",
"discoverer": "Walter Noddack ",
"nameOrigin": "From Rhines provinces of Germany ",
"uses": "filaments for mass spectrographs ",
"obtainedFrom": "gadolinite, molybdenite "

},
{
"numberOfEnergyLevels": 6,

"firstEnergyLevel": 2 ,
"secondEnergyLevel": 8 ,
"thirdEnergyLevel": 18 ,
"fourthEnergyLevel": 32 ,
"fifthEnergyLevel": 14 ,
"sixthEnergyLevel": 2,
"seventhEnergyLevel": null,

"Name": "Osmium ",
"Symbol": "Os ",
"atomicNumber": "76 ",
"atomicMass": "190.23 amu ",
"meltingPoint": "3045.0 °C (3318.15 K, 5513.0 °F) ",
"boilingPoint": "5027.0 °C (5300.15 K, 9080.6 °F) ",
"numberOfProtons": " 76 ",
"numberOfNeutrons": "114 ",
"classification": "transition-metals",
"crystalStructure": "Hexagonal ",
"density@293K": "22.4 g/cm3 ",
"color": "silvery",
"dateOfDiscovery": "1803",
"discoverer": "Smithson Tenant ",
"nameOrigin": "From the Greek word osmл (odor) ",
"uses": "tip gold pen points, instrument pivots, electrical light filaments ",
"obtainedFrom": "ores that contain platinum "

},
{
"numberOfEnergyLevels": 6,

"firstEnergyLevel": 2 ,
"secondEnergyLevel": 8 ,
"thirdEnergyLevel": 18 ,
"fourthEnergyLevel": 32 ,
"fifthEnergyLevel": 15 ,
"sixthEnergyLevel": 2,
"seventhEnergyLevel": null,

"Name": "Iridium ",
"Symbol": "Ir ",
"atomicNumber": "77 ",
"atomicMass": "192.217 amu ",
"meltingPoint": "2410.0 °C (2683.15 K, 4370.0 °F) ",
"boilingPoint": "4527.0 °C (4800.15 K, 8180.6 °F) ",
"numberOfProtons": " 77 ",
"numberOfNeutrons": "115 ",
"classification": "transition-metals",
"crystalStructure": "Cubic ",
"density@293K": "22.5 g/cm3 ",
"color": "white",
"dateOfDiscovery": "1804 ",
"discoverer": "S. Tenant ",
"nameOrigin": "From the Latin word iridis (rainbow) ",
"uses": "tip gold pens, crucible and special containers ",
"obtainedFrom": "gravel deposits with platinum "
},
{
"numberOfEnergyLevels": 6,

"firstEnergyLevel": 2 ,
"secondEnergyLevel": 8 ,
"thirdEnergyLevel": 18 ,
"fourthEnergyLevel": 32 ,
"fifthEnergyLevel": 17 ,
"sixthEnergyLevel": 1,
"seventhEnergyLevel": null,

"Name": "Platinum ",
"Symbol": "Pt ",
"atomicNumber": "78 ",
"atomicMass": "195.078 amu ",
"meltingPoint": "1772.0 °C (2045.15 K, 3221.6 °F) ",
"boilingPoint": "3827.0 °C (4100.15 K, 6920.6 °F) ",
"numberOfProtons": " 78 ",
"numberOfNeutrons": "117 ",
"classification": "transition-metals",
"crystalStructure": "Cubic ",
"density@293K": "21.45 g/cm3 ",
"color": "silverish",
"dateOfDiscovery": "1735 ",
"discoverer": "Julius Scaliger ",
"nameOrigin": "From the Spanish word platina (little silver) ",
"uses": "jewelry, containers, catalyst ",
"obtainedFrom": "platinum ores "
},
{
"numberOfEnergyLevels": 6,

"firstEnergyLevel": 2 ,
"secondEnergyLevel": 8 ,
"thirdEnergyLevel": 18 ,
"fourthEnergyLevel": 32 ,
"fifthEnergyLevel": 18 ,
"sixthEnergyLevel": 1,
"seventhEnergyLevel": null,

"Name": "Gold ",
"Symbol": "Au ",
"atomicNumber": "79 ",
"atomicMass": "196.96655 amu ",
"meltingPoint": "1064.43 °C (1337.5801 K, 1947.9741 °F) ",
"boilingPoint": "2807.0 °C (3080.15 K, 5084.6 °F) ",
"numberOfProtons": " 79 ",
"numberOfNeutrons": "118 ",
"classification": "transition-metals",
"crystalStructure": "Cubic ",
"density@293K": "19.32 g/cm3 ",
"color": "Gold",
"dateOfDiscovery": "circa 3000 BC ",
"discoverer": "Unknown ",
"nameOrigin": "From the Old English word geolo (yellow) ",
"symbolOrigin": "From the Latin word aurum (gold) ",
"uses": "electronics, jewelry, coins ",
"obtainedFrom": "crust of the earth, copper ores "

},
{
"numberOfEnergyLevels": 6,

"firstEnergyLevel": 2 ,
"secondEnergyLevel": 8 ,
"thirdEnergyLevel": 18 ,
"fourthEnergyLevel": 32 ,
"fifthEnergyLevel": 18 ,
"sixthEnergyLevel": 2,
"seventhEnergyLevel": null,

"Name": "Mercury ",
"Symbol": "Hg ",
"atomicNumber": "80 ",
"atomicMass": "200.59 amu ",
"meltingPoint": "-38.87 °C (234.28 K, -37.966 °F) ",
"boilingPoint": "356.58 °C (629.73 K, 673.844 °F) ",
"numberOfProtons": " 80 ",
"numberOfNeutrons": "121 ",
"classification": "transition-metals",
"crystalStructure": "Rhombohedral ",
"density@293K": "13.456 g/cm3 ",
"color": "Silver",
"dateOfDiscovery": "Known to the ancients ",
"discoverer": "Unknown ",
"nameOrigin": "After the planet Mercury ",
"symbolOrigin": "From the Latin word hydrargyrum (liquid silver) ",
"uses": "thermometers, barometers, fluorescent lamps, batteries ",
"obtainedFrom": "cinnabar ore "

},
{
"numberOfEnergyLevels": 6,

"firstEnergyLevel": 2 ,
"secondEnergyLevel": 8 ,
"thirdEnergyLevel": 18 ,
"fourthEnergyLevel": 32 ,
"fifthEnergyLevel": 18 ,
"sixthEnergyLevel": 3,
"seventhEnergyLevel": null,

"Name": "Thallium ",
"Symbol": "Tl ",
"atomicNumber": "81 ",
"atomicMass": "204.3833 amu ",
"meltingPoint": "303.5 °C (576.65 K, 578.3 °F) ",
"boilingPoint": "1457.0 °C (1730.15 K, 2654.6 °F) ",
"numberOfProtons": " 81 ",
"numberOfNeutrons": "123 ",
"classification": "post-transition-metals",
"crystalStructure": "Hexagonal ",
"density@293K": "11.85 g/cm3 ",
"color": "bluish",
"dateOfDiscovery": "1861 ",
"discoverer": "Sir William Crookes ",
"nameOrigin": "From the Greek word thallos (young shoot) ",
"uses": "rat and ant poisons, detecting infrared radiation ",
"obtainedFrom": "crookesite, hutchinsonite, lorandite "

},
{
"numberOfEnergyLevels": 6,

"firstEnergyLevel": 2 ,
"secondEnergyLevel": 8 ,
"thirdEnergyLevel": 18 ,
"fourthEnergyLevel": 32 ,
"fifthEnergyLevel": 18 ,
"sixthEnergyLevel": 4,
"seventhEnergyLevel": null,

"Name": "Lead ",
"Symbol": "Pb ",
"atomicNumber": "82 ",
"atomicMass": "207.2 amu ",
"meltingPoint": "327.5 °C (600.65 K, 621.5 °F) ",
"boilingPoint": "1740.0 °C (2013.15 K, 3164.0 °F) ",
"numberOfProtons": " 82 ",
"numberOfNeutrons": "125 ",
"classification": "post-transition-metals",
"crystalStructure": "Cubic ",
"density@293K": "11.34 g/cm3 ",
"color": "bluish",
"dateOfDiscovery": "Known to the ancients ",
"discoverer": "Unknown ",
"nameOrigin": "From the Greek word protos (first) ",
"symbolOrigin": "From the Latin word plumbum (lead) ",
"uses": "solder and shielding against radiation, batteries ",
"obtainedFrom": "galena "
},
{
"numberOfEnergyLevels": 6,

"firstEnergyLevel": 2 ,
"secondEnergyLevel": 8 ,
"thirdEnergyLevel": 18 ,
"fourthEnergyLevel": 32 ,
"fifthEnergyLevel": 18 ,
"sixthEnergyLevel": 5,
"seventhEnergyLevel": null,

"Name": "Bismuth ",
"Symbol": "Bi ",
"atomicNumber": "83 ",
"atomicMass": "208.98038 amu ",
"meltingPoint": "271.3 °C (544.45 K, 520.33997 °F) ",
"boilingPoint": "1560.0 °C (1833.15 K, 2840.0 °F) ",
"numberOfProtons": " 83 ",
"numberOfNeutrons": "126 ",
"classification": "post-transition-metals",
"crystalStructure": "Rhombohedral ",
"density@293K": "9.8 g/cm3 ",
"color": "white",
"dateOfDiscovery": "Known to the ancients ",
"discoverer": "Unknown ",
"nameOrigin": "From the German word wissmuth (white mass) ",
"uses": "pharmaceuticals, fuses ",
"obtainedFrom": "bismuthine "
},
{
"numberOfEnergyLevels": 6,

"firstEnergyLevel": 2 ,
"secondEnergyLevel": 8 ,
"thirdEnergyLevel": 18 ,
"fourthEnergyLevel": 32 ,
"fifthEnergyLevel": 18 ,
"sixthEnergyLevel": 6,
"seventhEnergyLevel": null,

"Name": "Polonium ",
"Symbol": "Po ",
"atomicNumber": "84 ",
"atomicMass": "(209.0) amu ",
"meltingPoint": "254.0 °C (527.15 K, 489.2 °F) ",
"boilingPoint": "962.0 °C (1235.15 K, 1763.6 °F) ",
"numberOfProtons": " 84 ",
"numberOfNeutrons": "125 ",
"classification": "metalloids",
"crystalStructure": "Monoclinic ",
"density@293K": "9.4 g/cm3 ",
"color": "Unknown",
"dateOfDiscovery": "1898 ",
"discoverer": "Pierre and Marie Curie ",
"nameOrigin": "After Poland ",
"uses": "No uses known ",
"obtainedFrom": "pitchblende, decay of radium "
},
{
"numberOfEnergyLevels": 6,

"firstEnergyLevel": 2 ,
"secondEnergyLevel": 8 ,
"thirdEnergyLevel": 18 ,
"fourthEnergyLevel": 32 ,
"fifthEnergyLevel": 18 ,
"sixthEnergyLevel": 7,
"seventhEnergyLevel": null,
"Name": "Astatine ",
"Symbol": "At ",
"atomicNumber": "85 ",
"atomicMass": "(210.0) amu ",
"meltingPoint": "302.0 °C (575.15 K, 575.6 °F) ",
"boilingPoint": "337.0 °C (610.15 K, 638.6 °F) ",
"numberOfProtons": " 85 ",
"numberOfNeutrons": "125 ",
"classification": "halogens",
"crystalStructure": "Unknown ",
"density@293K": "Unknown ",
"color": "Unknown",
"dateOfDiscovery": "1940 ",
"discoverer": "D.R. Corson ",
"nameOrigin": "From the Greek word astatos (unstable) ",
"uses": "No uses known ",
"obtainedFrom": "Man-made "
},
{
"numberOfEnergyLevels": 6,

"firstEnergyLevel": 2 ,
"secondEnergyLevel": 8 ,
"thirdEnergyLevel": 18 ,
"fourthEnergyLevel": 32 ,
"fifthEnergyLevel": 18 ,
"sixthEnergyLevel": 8,
"seventhEnergyLevel": null,

"Name": "Radon ",
"Symbol": "Rn ",
"atomicNumber": "86 ",
"atomicMass": "(222.0) amu ",
"meltingPoint": "-71.0 °C (202.15 K, -95.8 °F) ",
"boilingPoint": "-61.8 °C (211.35 K, -79.24 °F) ",
"numberOfProtons": " 86 ",
"numberOfNeutrons": "136 ",
"classification": "noble-gases",
"crystalStructure": "Cubic ",
"density@293K": "9.73 g/cm3 ",
"color": "colorless",
"dateOfDiscovery": "1898 ",
"discoverer": "Fredrich Ernst Dorn ",
"nameOrigin": "From radium ",
"uses": "treatment of cancer ",
"obtainedFrom": "decay of radium "

}
]
