[
{
      "numberOfEnergyLevels": 4,

      "firstEnergyLevel": 2 ,
      "secondEnergyLevel": 8 ,
      "thirdEnergyLevel": 8 ,
      "fourthEnergyLevel": 1,
      "fifthEnergyLevel": null,
      "sixthEnergyLevel": null,
      "seventhEnergyLevel": null,
         "Name": "Potassium ",
         "Symbol": "K ",
         "atomicNumber": "19 ",
         "atomicMass": "39.0983 amu ",
         "meltingPoint": "63.65 °C (336.8 K, 146.57 °F) ",
         "boilingPoint": "774.0 °C (1047.15 K, 1425.2 °F) ",
         "numberOfProtons": " 19 ",
         "numberOfNeutrons": "20 ",
         "classification": "alkali-metals",
         "crystalStructure": "Cubic ",
         "density@293K": "0.862 g/cm3 ",
         "color": "silvery",
         "dateOfDiscovery": "1807 ",
         "discoverer": "Sir Humphrey Davy ",
         "nameOrigin": "potash ",
         "symbolOrigin": "From the Latin word kalium ",
         "uses": "glass, soap ",
         "obtainedFrom": "minerals (carnallite) "
  },
  {
      "numberOfEnergyLevels": 4,

      "firstEnergyLevel": 2 ,
      "secondEnergyLevel": 8 ,
      "thirdEnergyLevel": 8 ,
      "fourthEnergyLevel": 2,
      "fifthEnergyLevel": null,
      "sixthEnergyLevel": null,
      "seventhEnergyLevel": null,
         "Name": "Calcium ",
         "Symbol": "Ca ",
         "atomicNumber": "20 ",
         "atomicMass": "40.078 amu ",
         "meltingPoint": "839.0 °C (1112.15 K, 1542.2 °F) ",
         "boilingPoint": "1484.0 °C (1757.15 K, 2703.2 °F) ",
         "numberOfProtons": " 20 ",
         "numberOfNeutrons": "20 ",
         "classification": "alkaline-earth-metals",
         "crystalStructure": "Cubic ",
         "density@293K": "1.55 g/cm3 ",
         "color": "Silvery",
  "dateOfDiscovery": "1808",
         "discoverer": "Sir Humphrey Davy ",
         "nameOrigin": "From the latin word calcis (lime) ",
         "uses": "life forms for bones and shells ",
         "obtainedFrom": "chalk, limestone, marble. 3.5% of crust "
  },
  {
      "numberOfEnergyLevels": 4,

      "firstEnergyLevel": 2 ,
      "secondEnergyLevel": 8 ,
      "thirdEnergyLevel": 9 ,
      "fourthEnergyLevel": 2,
      "fifthEnergyLevel": null,
      "sixthEnergyLevel": null,
      "seventhEnergyLevel": null,
         "Name": "Scandium ",
         "Symbol": "Sc ",
         "atomicNumber": "21 ",
         "atomicMass": "44.95591 amu ",
         "meltingPoint": "1539.0 °C (1812.15 K, 2802.2 °F) ",
         "boilingPoint": "2832.0 °C (3105.15 K, 5129.6 °F) ",
         "numberOfProtons": " 21 ",
         "numberOfNeutrons": "24 ",
         "classification": "transition-metals",
         "crystalStructure": "Hexagonal ",
         "density@293K": "2.989 g/cm3 ",
         "color": "silvery",
         "dateOfDiscovery": "1879 ",
         "discoverer": "Lars Nilson ",
         "nameOrigin": "From Scandinavia ",
         "uses": "No uses known ",
         "obtainedFrom": "minerals (thortveitile, wiikite) "
  },
  {
      "numberOfEnergyLevels": 4,

      "firstEnergyLevel": 2 ,
      "secondEnergyLevel": 8 ,
      "thirdEnergyLevel": 10 ,
      "fourthEnergyLevel": 2,
      "fifthEnergyLevel": null,
      "sixthEnergyLevel": null,
      "seventhEnergyLevel": null,
         "Name": "Titanium ",
         "Symbol": "Ti ",
         "atomicNumber": "22 ",
         "atomicMass": "47.867 amu ",
         "meltingPoint": "1660.0 °C (1933.15 K, 3020.0 °F) ",
         "boilingPoint": "3287.0 °C (3560.15 K, 5948.6 °F) ",
         "numberOfProtons": " 22 ",
         "numberOfNeutrons": "26 ",
         "classification": "transition-metals",
         "crystalStructure": "Hexagonal ",
         "density@293K": "4.54 g/cm3 ",
         "color": "silverish",
  "dateOfDiscovery": "1791",
         "discoverer": "William Gregor ",
         "nameOrigin": "From the Greek word titanos (Titans) ",
         "uses": "paint, rubber, paper ",
         "obtainedFrom": "minerals (ilmenite, rutile) "
  },
  {
      
      "numberOfEnergyLevels": 4,

      "firstEnergyLevel": 2 ,
      "secondEnergyLevel": 8 ,
      "thirdEnergyLevel": 11 ,
      "fourthEnergyLevel": 2,
      "fifthEnergyLevel": null,
      "sixthEnergyLevel": null,
      "seventhEnergyLevel": null,
         "Name": "Vanadium ",
         "Symbol": "V ",
         "atomicNumber": "23 ",
         "atomicMass": "50.9415 amu ",
         "meltingPoint": "1890.0 °C (2163.15 K, 3434.0 °F) ",
         "boilingPoint": "3380.0 °C (3653.15 K, 6116.0 °F) ",
         "numberOfProtons": " 23 ",
         "numberOfNeutrons": "28 ",
         "classification": "transition-metals",
         "crystalStructure": "Cubic ",
         "density@293K": "5.8 g/cm3 ",
         "color": "Silverish",
  "dateOfDiscovery": "1830",
         "discoverer": "Nils Sefstrom ",
         "nameOrigin": "After Vanadis (Scandinavian goddess) ",
         "uses": "catalyst, dye, color-fixer ",
         "obtainedFrom": "minerals (patronite, vanadinite) "
  },
  {
      "numberOfEnergyLevels": 4,

      "firstEnergyLevel": 2 ,
      "secondEnergyLevel": 8 ,
      "thirdEnergyLevel": 13 ,
      "fourthEnergyLevel": 1,
      "fifthEnergyLevel": null,
      "sixthEnergyLevel": null,
      "seventhEnergyLevel": null,
         "Name": "Chromium ",
         "Symbol": "Cr ",
         "atomicNumber": "24 ",
         "atomicMass": "51.9961 amu ",
         "meltingPoint": "1857.0 °C (2130.15 K, 3374.6 °F) ",
         "boilingPoint": "2672.0 °C (2945.15 K, 4841.6 °F) ",
         "numberOfProtons": " 24 ",
         "numberOfNeutrons": "28 ",
         "classification": "transition-metals",
         "crystalStructure": "Cubic ",
         "density@293K": "7.19 g/cm3 ",
         "color": "gray",
         "dateOfDiscovery": "1797 ",
         "discoverer": "Louis Vauquelin ",
         "nameOrigin": "From the Greek word chrôma (color) ",
         "uses": "Stainless steel ",
         "obtainedFrom": "Chromite "
  },
  {
      "numberOfEnergyLevels": 4,

      "firstEnergyLevel": 2 ,
      "secondEnergyLevel": 8 ,
      "thirdEnergyLevel": 13 ,
      "fourthEnergyLevel": 2,
      "fifthEnergyLevel": null,
      "sixthEnergyLevel": null,
      "seventhEnergyLevel": null,
         "Name": "Manganese ",
         "Symbol": "Mn ",
         "atomicNumber": "25 ",
         "atomicMass": "54.93805 amu ",
         "meltingPoint": "1245.0 °C (1518.15 K, 2273.0 °F) ",
         "boilingPoint": "1962.0 °C (2235.15 K, 3563.6 °F) ",
         "numberOfProtons": " 25 ",
         "numberOfNeutrons": "30 ",
         "classification": "transition-metals",
         "crystalStructure": "Cubic ",
         "density@293K": "7.43 g/cm3 ",
         "color": "silverish/grayish",
         "dateOfDiscovery": "1774 ",
         "discoverer": "Johann Gahn ",
         "nameOrigin": "From the Latin word mangnes (magnet) ",
         "uses": "steel, batteries, ceramics ",
         "obtainedFrom": "pyrolusite, psilomelane, rhodochrosite "
  },
  {
      "numberOfEnergyLevels": 4,

      "firstEnergyLevel": 2 ,
      "secondEnergyLevel": 8 ,
      "thirdEnergyLevel": 14 ,
      "fourthEnergyLevel": 2,
      "fifthEnergyLevel": null,
      "sixthEnergyLevel": null,
      "seventhEnergyLevel": null,
         "Name": "Iron ",
         "Symbol": "Fe ",
         "atomicNumber": "26 ",
         "atomicMass": "55.845 amu ",
         "meltingPoint": "1535.0 °C (1808.15 K, 2795.0 °F) ",
         "boilingPoint": "2750.0 °C (3023.15 K, 4982.0 °F) ",
         "numberOfProtons": " 26 ",
         "numberOfNeutrons": "30 ",
         "classification": "transition-metals",
         "crystalStructure": "Cubic ",
         "density@293K": "7.86 g/cm3 ",
         "color": "Silvery",
         "dateOfDiscovery": "Known to the ancients ",
          "discoverer": "Unknown ",
         "nameOrigin": "Latin ",
         "symbolOrigin": "From the Latin word ferrum (iron) ",
         "uses": "steel, hemoglobin (carries oxygen in blood) ",
         "obtainedFrom": "iron ores "
  },
  {
      "numberOfEnergyLevels": 4,

      "firstEnergyLevel": 2 ,
      "secondEnergyLevel": 8 ,
      "thirdEnergyLevel": 15 ,
      "fourthEnergyLevel": 2,
      "fifthEnergyLevel": null,
      "sixthEnergyLevel": null,
      "seventhEnergyLevel": null,
         "Name": "Cobalt ",
         "Symbol": "Co ",
         "atomicNumber": "27 ",
         "atomicMass": "58.9332 amu ",
         "meltingPoint": "1495.0 °C (1768.15 K, 2723.0 °F) ",
         "boilingPoint": "2870.0 °C (3143.15 K, 5198.0 °F) ",
         "numberOfProtons": " 27 ",
         "numberOfNeutrons": "32 ",
         "classification": "transition-metals",
         "crystalStructure": "Hexagonal ",
         "density@293K": "8.9 g/cm3 ",
         "color": "silver",
         "dateOfDiscovery": "1737 ",
          "discoverer": "George Brandt ",
         "nameOrigin": "From the German word kobalt or kobold (evil spirit) ",
         "uses": "magnets, ceramics, special glasses ",
         "obtainedFrom": "arsenic, oxygen, sulfur, cobaltine"
  },
  {
      "numberOfEnergyLevels": 4,

      "firstEnergyLevel": 2 ,
      "secondEnergyLevel": 8 ,
      "thirdEnergyLevel": 16 ,
      "fourthEnergyLevel": 2,
      "fifthEnergyLevel": null,
      "sixthEnergyLevel": null,
      "seventhEnergyLevel": null,
         "Name": "Nickel ",
         "Symbol": "Ni ",
         "atomicNumber": "28 ",
         "atomicMass": "58.6934 amu ",
         "meltingPoint": "1453.0 °C (1726.15 K, 2647.4 °F) ",
         "boilingPoint": "2732.0 °C (3005.15 K, 4949.6 °F) ",
         "numberOfProtons": " 28 ",
         "numberOfNeutrons": "31 ",
         "classification": "transition-metals",
         "crystalStructure": "Cubic ",
         "density@293K": "8.902 g/cm3 ",
         "color": "white",
  "dateOfDiscovery": "1751",
          "discoverer": "Alex Cronstedt ",
         "nameOrigin": "From the German word kupfernickel (false copper) ",
         "uses": "electroplating metal alloys, nickel-cadmium batteries ",
         "obtainedFrom": "pentlandite "
  },
  {
      "numberOfEnergyLevels": 4,

      "firstEnergyLevel": 2 ,
      "secondEnergyLevel": 8 ,
      "thirdEnergyLevel": 18 ,
      "fourthEnergyLevel": 1,
      "fifthEnergyLevel": null,
      "sixthEnergyLevel": null,
      "seventhEnergyLevel": null,
         "Name": "Copper ",
         "Symbol": "Cu ",
         "atomicNumber": "29 ",
         "atomicMass": "63.546 amu ",
         "meltingPoint": "1083.0 °C (1356.15 K, 1981.4 °F) ",
         "boilingPoint": "2567.0 °C (2840.15 K, 4652.6 °F) ",
         "numberOfProtons": " 29 ",
         "numberOfNeutrons": "35 ",
         "classification": "transition-metals",
         "crystalStructure": "Cubic ",
         "density@293K": "8.96 g/cm3 ",
         "color": "red/orange",
         "dateOfDiscovery": "Known to the ancients ",
          "discoverer": "Unknown ",
         "nameOrigin": "From the Latin word cyprium, after the island of Cyprus ",
         "uses": "electrical conductor, jewelry, coins, plumbing ",
         "obtainedFrom": "chalcopyrite, coveline, chalcosine "
  },
  {
      "numberOfEnergyLevels": 4,

      "firstEnergyLevel": 2 ,
      "secondEnergyLevel": 8 ,
      "thirdEnergyLevel": 18 ,
      "fourthEnergyLevel": 2,
      "fifthEnergyLevel": null,
      "sixthEnergyLevel": null,
      "seventhEnergyLevel": null,
         "Name": "Zinc ",
         "Symbol": "Zn ",
         "atomicNumber": "30 ",
         "atomicMass": "65.39 amu ",
         "meltingPoint": "419.58 °C (692.73 K, 787.24396 °F) ",
         "boilingPoint": "907.0 °C (1180.15 K, 1664.6 °F) ",
         "numberOfProtons": " 30 ",
         "numberOfNeutrons": "35 ",
         "classification": "transition-metals",
         "crystalStructure": "Hexagonal ",
         "density@293K": "7.133 g/cm3 ",
         "color": "bluish",
         "dateOfDiscovery": "1746 ",
          "discoverer": "Andreas Marggraf ",
         "nameOrigin": "From the German word zin (meaning tin) ",
         "uses": "metal coating, rust protection, brass, bronze, nickel ",
         "obtainedFrom": "zinc blende, calamine"
  },
  {
      "numberOfEnergyLevels": 4,

      "firstEnergyLevel": 2 ,
      "secondEnergyLevel": 8 ,
      "thirdEnergyLevel": 18 ,
      "fourthEnergyLevel": 3,
      "fifthEnergyLevel": null,
      "sixthEnergyLevel": null,
      "seventhEnergyLevel": null,
         "Name": "Gallium ",
         "Symbol": "Ga ",
         "atomicNumber": "31 ",
         "atomicMass": "69.723 amu ",
         "meltingPoint": "29.78 °C (302.93 K, 85.604004 °F) ",
         "boilingPoint": "2403.0 °C (2676.15 K, 4357.4 °F) ",
         "numberOfProtons": " 31 ",
         "numberOfNeutrons": "39 ",
         "classification": "post-transition-metals",
         "crystalStructure": "Orthorhombic ",
         "density@293K": "5.907 g/cm3 ",
         "color": "White/Silver",
  "dateOfDiscovery": "1875",
          "discoverer": "Paul Emile Lecoq de Boisbaudran ",
         "nameOrigin": "From the Latin word Gallia, the old name of France ",
         "uses": "semiconductor production ",
         "obtainedFrom": "bauxite, germanite, coal "
  },
  {
      "numberOfEnergyLevels": 4,

      "firstEnergyLevel": 2 ,
      "secondEnergyLevel": 8 ,
      "thirdEnergyLevel": 18 ,
      "fourthEnergyLevel": 4,
      "fifthEnergyLevel": null,
      "sixthEnergyLevel": null,
      "seventhEnergyLevel": null,
         "Name": "Germanium ",
         "Symbol": "Ge ",
         "atomicNumber": "32 ",
         "atomicMass": "72.61 amu ",
         "meltingPoint": "937.4 °C (1210.55 K, 1719.3201 °F) ",
         "boilingPoint": "2830.0 °C (3103.15 K, 5126.0 °F) ",
         "numberOfProtons": " 32 ",
         "numberOfNeutrons": "41 ",
         "classification": "metalloids",
         "crystalStructure": "Cubic ",
         "density@293K": "5.323 g/cm3 ",
         "color": "grayish",
  "dateOfDiscovery": "1886",
         "discoverer": "Clemens Winkler ",
         "nameOrigin": "From the Latin word Germania, meaning Germany ",
         "uses": "semiconductors ",
         "obtainedFrom": "refining of copper, zinc, lead "

  },
  {
      "numberOfEnergyLevels": 4,

      "firstEnergyLevel": 2 ,
      "secondEnergyLevel": 8 ,
      "thirdEnergyLevel": 18 ,
      "fourthEnergyLevel": 5,
      "fifthEnergyLevel": null,
      "sixthEnergyLevel": null,
      "seventhEnergyLevel": null,
         "Name": "Arsenic ",
         "Symbol": "As ",
         "atomicNumber": "33 ",
         "atomicMass": "74.9216 amu ",
         "meltingPoint": "817.0 °C (1090.15 K, 1502.6 °F) ",
         "boilingPoint": "613.0 °C (886.15 K, 1135.4 °F) ",
         "numberOfProtons": " 33 ",
         "numberOfNeutrons": "42 ",
         "classification": "metalloids",
         "crystalStructure": "Rhombohedral ",
         "density@293K": "5.72 g/cm3 ",
         "color": "Gray",
         "dateOfDiscovery": "Known to the ancients ",
          "discoverer": "Unknown ",
         "nameOrigin": "From the Greek word arsenikos and the Latin word arsenicum ",
         "uses": "Poison, conducts electricity, semiconductors ",
         "obtainedFrom": "mispickel "
  },
  {
      "numberOfEnergyLevels": 4,

      "firstEnergyLevel": 2 ,
      "secondEnergyLevel": 8 ,
      "thirdEnergyLevel": 18 ,
      "fourthEnergyLevel": 6,
      "fifthEnergyLevel": null,
      "sixthEnergyLevel": null,
      "seventhEnergyLevel": null,
         "Name": "Selenium ",
         "Symbol": "Se ",
         "atomicNumber": "34 ",
         "atomicMass": "78.96 amu ",
         "meltingPoint": "217.0 °C (490.15 K, 422.6 °F) ",
         "boilingPoint": "684.9 °C (958.05005 K, 1264.8201 °F) ",
         "numberOfProtons": " 34 ",
         "numberOfNeutrons": "45 ",
         "classification": "other-nonmetals",
         "crystalStructure": "Hexagonal ",
         "density@293K": "4.79 g/cm3 ",
         "color": "gray",
         "dateOfDiscovery": "1817 ",
         "discoverer": "Jons Berzelius ",
         "nameOrigin": "From the Greek word Selênê (Moon) ",
         "uses": "photoelectric cells, TV cameras ",
         "obtainedFrom": "refining of lead, copper, nickel "
  },
  {
      "numberOfEnergyLevels": 4,

      "firstEnergyLevel": 2 ,
      "secondEnergyLevel": 8 ,
      "thirdEnergyLevel": 18 ,
      "fourthEnergyLevel": 7,
         "Name": "Bromine ",
         "Symbol": "Br ",
         "atomicNumber": "35 ",
         "atomicMass": "79.904 amu ",
         "meltingPoint": "-7.2 °C (265.95 K, 19.04 °F) ",
         "boilingPoint": "58.78 °C (331.93 K, 137.804 °F) ",
         "numberOfProtons": " 35 ",
         "numberOfNeutrons": "45 ",
         "classification": "halogens",
         "crystalStructure": "Orthorhombic ",
         "density@293K": "3.119 g/cm3 ",
         "color": "Red",
         "dateOfDiscovery": "1826 ",
         "discoverer": "Antoine J. Balard ",
         "nameOrigin": "From the Greek word brômos (stench) ",
         "uses": "Poisonous ",
         "obtainedFrom": "Sea Water "
  },
  {
      "numberOfEnergyLevels": 4,

      "firstEnergyLevel": 2 ,
      "secondEnergyLevel": 8 ,
      "thirdEnergyLevel": 18 ,
      "fourthEnergyLevel": 8,
      "fifthEnergyLevel": null,
      "sixthEnergyLevel": null,
      "seventhEnergyLevel": null,
         "Name": "Krypton ",
         "Symbol": "Kr ",
         "atomicNumber": "36 ",
         "atomicMass": "83.8 amu ",
         "meltingPoint": "-157.2 °C (115.950005 K, -250.95999 °F) ",
         "boilingPoint": "-153.4 °C (119.75001 K, -244.12 °F) ",
         "numberOfProtons": " 36 ",
         "numberOfNeutrons": "48 ",
         "classification": "noble-gases",
         "crystalStructure": "Cubic ",
         "density@293K": "3.74 g/cm3 ",
         "color": "colorless gas",
         "dateOfDiscovery": "1898 ",
         "discoverer": "Sir William Ramsay ",
         "nameOrigin": "From the Greek word kryptos (hidden) ",
         "uses": "Lighting ",
         "obtainedFrom": "production of liquid air "
  }
]
