[
  {
    "numberOfEnergyLevels": 3,

    "firstEnergyLevel": 2 ,
    "secondEnergyLevel": 8 ,
    "thirdEnergyLevel": 1,
    "fourthEnergyLevel": null,
    "fifthEnergyLevel": null,
    "sixthEnergyLevel": null,
    "seventhEnergyLevel": null,

     "Name": "Sodium ",
     "Symbol": "Na ",
     "atomicNumber": "11 ",
     "atomicMass": "22.98977 amu ",
     "meltingPoint": "97.72 °C (370.87 K, 207.9 °F) ",
     "boilingPoint": "883 °C (1156 K, 1621 °F) ",
     "numberOfProtons": " 11 ",
     "numberOfNeutrons": "12 ",
     "classification": "alkali-metals",
     "crystalStructure": "Cubic ",
     "density": "0.971 g/cm3 ",
     "color": "silvery",
     "dateOfDiscovery": "1807 ",
      "discoverer": "Sir Humphrey Davy ",
     "nameOrigin": "soda (Na2CO3) ",
     "symbolOrigin": "From the Latin word natrium (sodium) ",
     "uses": "medicine, agriculture ",
     "obtainedFrom": "table salts and other foods "
  },
  {
    "numberOfEnergyLevels": 3,

    "firstEnergyLevel": 2 ,
    "secondEnergyLevel": 8 ,
    "thirdEnergyLevel": 2,
    "fourthEnergyLevel": null,
    "fifthEnergyLevel": null,
    "sixthEnergyLevel": null,
    "seventhEnergyLevel": null,

     "Name": "Magnesium ",
     "Symbol": "Mg ",
     "atomicNumber": "12 ",
     "atomicMass": "24.305 amu ",
     "meltingPoint": "650.0 °C (923.15 K, 1202.0 °F) ",
     "boilingPoint": "1107.0 °C (1380.15 K, 2024.6 °F) ",
     "numberOfProtons": " 12 ",
     "numberOfNeutrons": "12 ",
     "classification": "alkaline-earth-metals",
     "crystalStructure": "Hexagonal ",
     "density": "1.738 g/cm3 ",
     "color": "grayish",
    "dateOfDiscovery": "1808",
     "discoverer": "Sir Humphrey Davy ",
     "nameOrigin": "Magnesia (City) ",
     "uses": "airplanes, missiles ",
     "obtainedFrom": "sea water "
  },
  {
    "numberOfEnergyLevels": null,
    "firstEnergyLevel": null,
    "secondEnergyLevel": null,
    "thirdEnergyLevel": null,
    "fourthEnergyLevel": null,
    "fifthEnergyLevel": null,
    "sixthEnergyLevel": null,
    "seventhEnergyLevel": null,

    "Name": null,
    "Symbol": null,
    "atomicNumber": null,
    "atomicMass": null,
    "meltingPoint": null,
    "boilingPoint": null,
    "numberOfProtons": null,
    "numberOfNeutrons": null, 
    "classification": "empty",
    "crystalStructure": null,
    "density": null,
    "color": null,
    "dateOfDiscovery": null,
    "discoverer": null,
    "nameOrigin": null,
    "uses": null,
    "obtainedFrom": null
  },
  {
    "numberOfEnergyLevels": null,
    "firstEnergyLevel": null,
    "secondEnergyLevel": null,
    "thirdEnergyLevel": null,
    "fourthEnergyLevel": null,
    "fifthEnergyLevel": null,
    "sixthEnergyLevel": null,
    "seventhEnergyLevel": null,

    "Name": null,
    "Symbol": null,
    "atomicNumber": null,
    "atomicMass": null,
    "meltingPoint": null,
    "boilingPoint": null,
    "numberOfProtons": null,
    "numberOfNeutrons": null, 
    "classification": "empty",
    "crystalStructure": null,
    "density": null,
    "color": null,
    "dateOfDiscovery": null,
    "discoverer": null,
    "nameOrigin": null,
    "uses": null,
    "obtainedFrom": null
  },
  {
    "numberOfEnergyLevels": null,
    "firstEnergyLevel": null,
    "secondEnergyLevel": null,
    "thirdEnergyLevel": null,
    "fourthEnergyLevel": null,
    "fifthEnergyLevel": null,
    "sixthEnergyLevel": null,
    "seventhEnergyLevel": null,

    "Name": null,
    "Symbol": null,
    "atomicNumber": null,
    "atomicMass": null,
    "meltingPoint": null,
    "boilingPoint": null,
    "numberOfProtons": null,
    "numberOfNeutrons": null, 
    "classification": "empty",
    "crystalStructure": null,
    "density": null,
    "color": null,
    "dateOfDiscovery": null,
    "discoverer": null,
    "nameOrigin": null,
    "uses": null,
    "obtainedFrom": null
  },
  {
    "numberOfEnergyLevels": null,
    "firstEnergyLevel": null,
    "secondEnergyLevel": null,
    "thirdEnergyLevel": null,
    "fourthEnergyLevel": null,
    "fifthEnergyLevel": null,
    "sixthEnergyLevel": null,
    "seventhEnergyLevel": null,

    "Name": null,
    "Symbol": null,
    "atomicNumber": null,
    "atomicMass": null,
    "meltingPoint": null,
    "boilingPoint": null,
    "numberOfProtons": null,
    "numberOfNeutrons": null, 
    "classification": "empty",
    "crystalStructure": null,
    "density": null,
    "color": null,
    "dateOfDiscovery": null,
    "discoverer": null,
    "nameOrigin": null,
    "uses": null,
    "obtainedFrom": null
  },
  {
    "numberOfEnergyLevels": null,
    "firstEnergyLevel": null,
    "secondEnergyLevel": null,
    "thirdEnergyLevel": null,
    "fourthEnergyLevel": null,
    "fifthEnergyLevel": null,
    "sixthEnergyLevel": null,
    "seventhEnergyLevel": null,

    "Name": null,
    "Symbol": null,
    "atomicNumber": null,
    "atomicMass": null,
    "meltingPoint": null,
    "boilingPoint": null,
    "numberOfProtons": null,
    "numberOfNeutrons": null, 
    "classification": "empty",
    "crystalStructure": null,
    "density": null,
    "color": null,
    "dateOfDiscovery": null,
    "discoverer": null,
    "nameOrigin": null,
    "uses": null,
    "obtainedFrom": null
  },
  {
    "numberOfEnergyLevels": null,
    "firstEnergyLevel": null,
    "secondEnergyLevel": null,
    "thirdEnergyLevel": null,
    "fourthEnergyLevel": null,
    "fifthEnergyLevel": null,
    "sixthEnergyLevel": null,
    "seventhEnergyLevel": null,

    "Name": null,
    "Symbol": null,
    "atomicNumber": null,
    "atomicMass": null,
    "meltingPoint": null,
    "boilingPoint": null,
    "numberOfProtons": null,
    "numberOfNeutrons": null, 
    "classification": "empty",
    "crystalStructure": null,
    "density": null,
    "color": null,
    "dateOfDiscovery": null,
    "discoverer": null,
    "nameOrigin": null,
    "uses": null,
    "obtainedFrom": null
  },
  {
    "numberOfEnergyLevels": null,
    "firstEnergyLevel": null,
    "secondEnergyLevel": null,
    "thirdEnergyLevel": null,
    "fourthEnergyLevel": null,
    "fifthEnergyLevel": null,
    "sixthEnergyLevel": null,
    "seventhEnergyLevel": null,

    "Name": null,
    "Symbol": null,
    "atomicNumber": null,
    "atomicMass": null,
    "meltingPoint": null,
    "boilingPoint": null,
    "numberOfProtons": null,
    "numberOfNeutrons": null, 
    "classification": "empty",
    "crystalStructure": null,
    "density": null,
    "color": null,
    "dateOfDiscovery": null,
    "discoverer": null,
    "nameOrigin": null,
    "uses": null,
    "obtainedFrom": null
  },
  {
    "numberOfEnergyLevels": null,
    "firstEnergyLevel": null,
    "secondEnergyLevel": null,
    "thirdEnergyLevel": null,
    "fourthEnergyLevel": null,
    "fifthEnergyLevel": null,
    "sixthEnergyLevel": null,
    "seventhEnergyLevel": null,

    "Name": null,
    "Symbol": null,
    "atomicNumber": null,
    "atomicMass": null,
    "meltingPoint": null,
    "boilingPoint": null,
    "numberOfProtons": null,
    "numberOfNeutrons": null, 
    "classification": "empty",
    "crystalStructure": null,
    "density": null,
    "color": null,
    "dateOfDiscovery": null,
    "discoverer": null,
    "nameOrigin": null,
    "uses": null,
    "obtainedFrom": null
  },
  {
    "numberOfEnergyLevels": null,
    "firstEnergyLevel": null,
    "secondEnergyLevel": null,
    "thirdEnergyLevel": null,
    "fourthEnergyLevel": null,
    "fifthEnergyLevel": null,
    "sixthEnergyLevel": null,
    "seventhEnergyLevel": null,

    "Name": null,
    "Symbol": null,
    "atomicNumber": null,
    "atomicMass": null,
    "meltingPoint": null,
    "boilingPoint": null,
    "numberOfProtons": null,
    "numberOfNeutrons": null, 
    "classification": "empty",
    "crystalStructure": null,
    "density": null,
    "color": null,
    "dateOfDiscovery": null,
    "discoverer": null,
    "nameOrigin": null,
    "uses": null,
    "obtainedFrom": null
  },
  {
    "numberOfEnergyLevels": null,
    "firstEnergyLevel": null,
    "secondEnergyLevel": null,
    "thirdEnergyLevel": null,
    "fourthEnergyLevel": null,
    "fifthEnergyLevel": null,
    "sixthEnergyLevel": null,
    "seventhEnergyLevel": null,

    "Name": null,
    "Symbol": null,
    "atomicNumber": null,
    "atomicMass": null,
    "meltingPoint": null,
    "boilingPoint": null,
    "numberOfProtons": null,
    "numberOfNeutrons": null, 
    "classification": "empty",
    "crystalStructure": null,
    "density": null,
    "color": null,
    "dateOfDiscovery": null,
    "discoverer": null,
    "nameOrigin": null,
    "uses": null,
    "obtainedFrom": null
  },
  {
    "numberOfEnergyLevels": 3,

    "firstEnergyLevel": 2 ,
    "secondEnergyLevel": 8 ,
    "thirdEnergyLevel": 3,
    "fourthEnergyLevel": null,
    "fifthEnergyLevel": null,
    "sixthEnergyLevel": null,
    "seventhEnergyLevel": null,

    "Name": "Aluminum ",
    "Symbol": "Al ",
    "atomicNumber": "13 ",
    "atomicMass": "26.981539 amu ",
    "meltingPoint": "660.37 °C (933.52 K, 1220.666 °F) ",
    "boilingPoint": "2467.0 °C (2740.15 K, 4472.6 °F) ",
    "numberOfProtons": " 13 ",
    "numberOfNeutrons": "14 ",
    "classification": "post-transition-metals",
    "crystalStructure": "Cubic ",
    "density": "2.702 g/cm3 ",
    "color": "Silver ",
    "dateOfDiscovery": "1825 ",
    "discoverer": "Hans Christian Oersted ",
    "nameOrigin": "From the Latin word alumen ",
    "uses": "airplanes, soda cans ",
    "obtainedFrom": "bauxite"
  },
  {
    "numberOfEnergyLevels": "3",

    "firstEnergyLevel": 2 ,
    "secondEnergyLevel": 8 ,
    "thirdEnergyLevel": 4,
    "fourthEnergyLevel": null,
    "fifthEnergyLevel": null,
    "sixthEnergyLevel": null,
    "seventhEnergyLevel": null,

    "dateOfDiscovery": "1823 ",
    "discoverer": "Jons Berzelius ",
    "nameOrigin": "From the Latin word silex (flint) ",
    "uses": "glass, semiconductors ",
    "obtainedFrom": "Second most abundant element. Found in clay, granite, quartz, sand ",
    "Name": "Silicon ",
    "Symbol": "Si ",
    "atomicNumber": "14 ",
    "atomicMass": "28.0855 amu ",
    "meltingPoint": "1410.0 °C (1683.15 K, 2570.0 °F) ",
    "boilingPoint": "2355.0 °C (2628.15 K, 4271.0 °F) ",
    "numberOfProtons": " 14 ",
    "numberOfNeutrons": "14 ",
    "classification": "metalloids",
    "crystalStructure": "Cubic ",
    "density": "2.329 g/cm3 ",
    "color": "grey",
    "numberOfEnergyLevels": "3"
  },
  {
    "numberOfEnergyLevels": 3,

    "firstEnergyLevel": 2 ,
    "secondEnergyLevel": 8 ,
    "thirdEnergyLevel": 5,
    "fourthEnergyLevel": null,
    "fifthEnergyLevel": null,
    "sixthEnergyLevel": null,
    "seventhEnergyLevel": null,
    "Name": "Phosphorus ",
    "Symbol": "P ",
    "atomicNumber": "15 ",
    "atomicMass": "30.97376 amu ",
    "meltingPoint": "44.1 °C (317.25 K, 111.38 °F) ",
    "boilingPoint": "280.0 °C (553.15 K, 536.0 °F) ",
    "numberOfProtons": " 15 ",
    "numberOfNeutrons": "16 ",
    "classification": "other-nonmetals",
    "crystalStructure": "Monoclinic ",
    "density": "1.82 g/cm3 ",
    "color": "white",
    "dateOfDiscovery": "1669 ",
    "discoverer": "Hennig Brand ",
    "nameOrigin": "From the Greek words phôs (light) and phoros (bearer) ",
    "uses": "fertilizers, detergents ",
    "obtainedFrom": "phosphate rock "
  },
  {
    "numberOfEnergyLevels": 3,

    "firstEnergyLevel": 2 ,
    "secondEnergyLevel": 8 ,
    "thirdEnergyLevel": 6,
    "fourthEnergyLevel": null,
    "fifthEnergyLevel": null,
    "sixthEnergyLevel": null,
    "seventhEnergyLevel": null,
    "Name": "Sulfur ",
    "Symbol": "S ",
    "atomicNumber": "16 ",
    "atomicMass": "32.066 amu ",
    "meltingPoint": "112.8 °C (385.95 K, 235.04001 °F) ",
    "boilingPoint": "444.6 °C (717.75 K, 832.28 °F) ",
    "numberOfProtons": " 16 ",
    "numberOfNeutrons": "16 ",
    "classification": "other-nonmetals",
    "crystalStructure": "Orthorhombic ",
    "density": "2.07 g/cm3 ",
    "color": "yellow ",
    "dateOfDiscovery": "Known to the ancients ",
    "discoverer": "Unknown ",
    "nameOrigin": "From the Latin word sulfur (brimstone) ",
    "uses": "matches, gunpowder, medicines ",
    "obtainedFrom": "naturally "
  },
  {
    "numberOfEnergyLevels": 3,

    "firstEnergyLevel": 2 ,
    "secondEnergyLevel": 8 ,
    "thirdEnergyLevel": 7,
    "fourthEnergyLevel": null,
    "fifthEnergyLevel": null,
    "sixthEnergyLevel": null,
    "seventhEnergyLevel": null,
    "Name": "Chlorine ",
    "Symbol": "Cl ",
    "atomicNumber": "17 ",
    "atomicMass": "35.4527 amu ",
    "meltingPoint": "-100.98 °C (172.17 K, -149.764 °F) ",
    "boilingPoint": "-34.6 °C (238.55 K, -30.279997 °F) ",
    "numberOfProtons": " 17 ",
    "numberOfNeutrons": "18 ",
    "classification": "halogens",
    "crystalStructure": "Orthorhombic ",
    "density": "3.214 g/cm3 ",
    "color": "green",
    "dateOfDiscovery": "1774",
    "discoverer": "Carl Wilhelm Scheele ",
    "nameOrigin": "From the Greek word khlôros (green) ",
    "uses": "Water purification, bleaches ",
    "obtainedFrom": "Salt "
  },
  {
    "numberOfEnergyLevels": 3,

    "firstEnergyLevel": 2,
    "secondEnergyLevel": 8,
    "thirdEnergyLevel": 8,
    "fourthEnergyLevel": null,
    "fifthEnergyLevel": null,
    "sixthEnergyLevel": null,
    "seventhEnergyLevel": null,
    "Name": "Argon ",
    "Symbol": "Ar ",
    "atomicNumber": "18 ",
    "atomicMass": "39.948 amu ",
    "meltingPoint": "-189.3 °C (83.85 K, -308.74 °F) ",
    "boilingPoint": "-186.0 °C (87.15 K, -302.8 °F) ",
    "numberOfProtons": " 18 ",
    "numberOfNeutrons": "22 ",
    "classification": "noble-gases",
    "crystalStructure": "Cubic ",
    "density": "1.784 g/cm3 ",
    "color": "Colorless Gas",
    "dateOfDiscovery": "1894",
    "discoverer": "Sir William Ramsay ",
    "nameOrigin": "From the Greek word argon (inactive) ",
    "uses": "Lighting ",
    "obtainedFrom": "air "
  }
]
