[
  {
            "numberOfEnergyLevels": 7,

            "firstEnergyLevel": 2 ,
            "secondEnergyLevel": 8 ,
            "thirdEnergyLevel": 18 ,
            "fourthEnergyLevel": 32 ,
            "fifthEnergyLevel": 18 ,
            "sixthEnergyLevel": 8 ,
            "seventhEnergyLevel": 1,
               "Name": "Francium ",
               "Symbol": "Fr ",
               "atomicNumber": "87 ",
               "atomicMass": "(223.0) amu ",
               "meltingPoint": "27.0 °C (300.15 K, 80.6 °F) ",
               "boilingPoint": "677.0 °C (950.15 K, 1250.6 °F) ",
               "numberOfProtons": " 87 ",
               "numberOfNeutrons": "136 ",
               "classification": "alkali-metals",
               "crystalStructure": "Cubic ",
               "density": "Unknown ",
               "color": "Unknown",
               "dateOfDiscovery": "1939 ",
               "discoverer": "Marguerite Perey ",
               "nameOrigin": "After France ",
               "uses": "No uses known ",
               "obtainedFrom": "decay of actinium"
        },
        {
            "numberOfEnergyLevels": 7,

            "firstEnergyLevel": 2 ,
            "secondEnergyLevel": 8 ,
            "thirdEnergyLevel": 18 ,
            "fourthEnergyLevel": 32 ,
            "fifthEnergyLevel": 18 ,
            "sixthEnergyLevel": 8 ,
            "seventhEnergyLevel": 2,
               "Name": "Radium ",
               "Symbol": "Ra ",
               "atomicNumber": "88 ",
               "atomicMass": "(226.0) amu ",
               "meltingPoint": "700.0 °C (973.15 K, 1292.0 °F) ",
               "boilingPoint": "1737.0 °C (2010.15 K, 3158.6 °F) ",
               "numberOfProtons": " 88 ",
               "numberOfNeutrons": "138 ",
               "classification": "alkaline-earth-metals",
               "crystalStructure": "Cubic ",
               "density": "5.0 g/cm3 ",
               "color": "silverish",
        "dateOfDiscovery": "1898",
               "discoverer": "Pierre and Marie Curie ",
               "nameOrigin": "From the Latin word radius (ray) ",
               "uses": "treating cancer ",
               "obtainedFrom": "uranium ores "

        },
  {
"numberOfEnergyLevels": null,
"firstEnergyLevel": null,
"secondEnergyLevel": null,
"thirdEnergyLevel": null,
"fourthEnergyLevel": null,
"fifthEnergyLevel": null,
"sixthEnergyLevel": null,
"seventhEnergyLevel": null,

"Name": "Actinoids",
"Symbol": "An",
"atomicNumber": "89 - 103",
"atomicMass": null,
"meltingPoint": null,
"boilingPoint": null,
"numberOfProtons": null,
"numberOfNeutrons": null, 
"classification": "actinoids",
"crystalStructure": null,
"density": null,
"color": null,
"dateOfDiscovery": null,
"discoverer": null,
"nameOrigin": null,
"uses": null,
"obtainedFrom": null
},
  {
            "numberOfEnergyLevels": 7,
            "firstEnergyLevel": 2 ,
            "secondEnergyLevel": 8 ,
            "thirdEnergyLevel": 18 ,
            "fourthEnergyLevel": 32 ,
            "fifthEnergyLevel": 32 ,
            "sixthEnergyLevel": 10 ,
            "seventhEnergyLevel": 2,
               "Name": "Rutherfordium ",
               "Symbol": "Rf ",
               "atomicNumber": "104 ",
               "atomicMass": "(261.0) amu ",
               "meltingPoint": "Unknown ",
               "boilingPoint": "Unknown ",
               "numberOfProtons": " 104 ",
               "numberOfNeutrons": "157 ",
               "classification": "transition-metals",
               "crystalStructure": "Unknown ",
               "density": "Unknown ",
               "color": "Unknown ",
               "otherNames": "Unnilquadium (Unq), Dubnium (Db), Rutherfordium (Rf)",
               "dateOfDiscovery": "1969 ",
               "discoverer": "Albert Ghiorso ",
               "nameOrigin": "After Lord Rutherford, a New Zealand chemist and physicist ",
               "uses": "No uses known ",
               "obtainedFrom": "Man-made "
        },
  {
            "numberOfEnergyLevels": 7,
            "firstEnergyLevel": 2 ,
            "secondEnergyLevel": 8 ,
            "thirdEnergyLevel": 18 ,
            "fourthEnergyLevel": 32 ,
            "fifthEnergyLevel": 32 ,
            "sixthEnergyLevel": 11 ,
            "seventhEnergyLevel": 2,
               "Name": "Dubnium ",
               "Symbol": "Db ",
               "atomicNumber": "105 ",
               "atomicMass": "(262.0) amu ",
               "meltingPoint": "Unknown ",
               "boilingPoint": "Unknown ",
               "numberOfProtons": " 105 ",
               "numberOfNeutrons": "157 ",
               "classification": "transition-metals",
               "crystalStructure": "Unknown ",
               "density": "Unknown ",
               "color": "Unknown ",
               "otherNames": "Unnilpentium (Unp), Joliotium (Jl), Hahnium (Ha)",
               "dateOfDiscovery": "1970 ",
               "discoverer": "Albert Ghiorso ",
               "nameOrigin": "After Dubna, Russia ",
               "uses": "No uses known ",
               "obtainedFrom": "Man-made"
        },
  {
             "numberOfEnergyLevels": 7,

             "firstEnergyLevel": 2 ,
             "secondEnergyLevel": 8 ,
             "thirdEnergyLevel": 18 ,
             "fourthEnergyLevel": 32 ,
             "fifthEnergyLevel": 32 ,
             "sixthEnergyLevel": 12 ,
             "seventhEnergyLevel": 2,
               "Name": "Seaborgium ",
               "Symbol": "Sg ",
               "atomicNumber": "106 ",
               "atomicMass": "(263.0) amu ",
               "meltingPoint": "Unknown ",
               "boilingPoint": "Unknown ",
               "numberOfProtons": " 106 ",
               "numberOfNeutrons": "157 ",
               "classification": "transition-metals",
               "crystalStructure": "Unknown ",
               "density": "Unknown ",
               "color": "Unknown ",
               "otherNames": "Unnilhexium (Unh), Rutherfordium (Rf), Seaborgium (Sg)",
               "dateOfDiscovery": "1974 ",
               "discoverer": "Albert Ghiorso ",
               "nameOrigin": "After Glenn T. Seaborg, who discovered many of the transuranium elements ",
               "uses": "No uses known ",
               "obtainedFrom": "Man-made "
        },
  {
            "numberOfEnergyLevels": 7,
            "firstEnergyLevel": 2 ,
            "secondEnergyLevel": 8 ,
            "thirdEnergyLevel": 18 ,
            "fourthEnergyLevel": 32 ,
            "fifthEnergyLevel": 32 ,
            "sixthEnergyLevel": 13 ,
            "seventhEnergyLevel": 2,
               "Name": "Bohrium ",
               "Symbol": "Bh ",
               "atomicNumber": "107 ",
               "atomicMass": "(262.0) amu ",
               "meltingPoint": "Unknown ",
               "boilingPoint": "Unknown ",
               "numberOfProtons": " 107 ",
               "numberOfNeutrons": "155 ",
               "classification": "transition-metals",
               "crystalStructure": "Unknown ",
               "density": "Unknown ",
               "color": "Unknown ",
               "otherNames": "Unnilseptium (Uns), Bohrium (Bh), Nielsbohrium (Ns)",

               "dateOfDiscovery": "1976 ",
               "discoverer": "Peter Armbruster, Gottfried Munzenber and others ",
               "nameOrigin": "After Niels Bohr (Danish physicist) ",
               "uses": "No uses known ",
               "obtainedFrom": "Man-made "
        },
  {
            "numberOfEnergyLevels": 7,
            "firstEnergyLevel": 2 ,
            "secondEnergyLevel": 8 ,
            "thirdEnergyLevel": 18 ,
            "fourthEnergyLevel": 32 ,
            "fifthEnergyLevel": 32 ,
            "sixthEnergyLevel": 14 ,
            "seventhEnergyLevel": 2,
               "Name": "Hassium ",
               "Symbol": "Hs ",
               "atomicNumber": "108 ",
               "atomicMass": "(265.0) amu ",
               "meltingPoint": "Unknown ",
               "boilingPoint": "Unknown ",
               "numberOfProtons": " 108 ",
               "numberOfNeutrons": "157 ",
               "classification": "transition-metals",
               "crystalStructure": "Unknown ",
               "density": "Unknown ",
               "color": "Unknown ",
               "otherNames": "Unniloctium (Uno), Hahnium (Hn), Hassium (Hs)",
               "dateOfDiscovery": "1984 ",
               "discoverer": "Peter Armbruster, Gottfried Munzenber and others ",
               "nameOrigin": "from the Latin word Hassias, a German state. ",
               "uses": "No uses known ",
               "obtainedFrom": "Man-made "
        },
        {
            "numberOfEnergyLevels": 7,
            "firstEnergyLevel": 2 ,
            "secondEnergyLevel": 8 ,
            "thirdEnergyLevel": 18 ,
            "fourthEnergyLevel": 32 ,
            "fifthEnergyLevel": 32 ,
            "sixthEnergyLevel": 15 ,
            "seventhEnergyLevel": 2,
               "Name": "Meitnerium ",
               "Symbol": "Mt ",
               "atomicNumber": "109 ",
               "atomicMass": "(266.0) amu ",
               "meltingPoint": "Unknown ",
               "boilingPoint": "Unknown ",
               "numberOfProtons": " 109 ",
               "numberOfNeutrons": "157 ",
               "classification": "transition-metals",
               "crystalStructure": "Unknown ",
               "density": "Unknown ",
               "color": "Unknown ",
               "otherNames": "Unnilennium (Une), Meitnerium (Mt), Meitnerium (Mt)",
               "dateOfDiscovery": "1982 ",
               "discoverer": "Heavy Ion Research Laboratory ",
               "nameOrigin": "After Lise Meitner (Austrian physicist) ",
               "uses": "No uses known ",
               "obtainedFrom": "Man-made "
        },
        {
            "numberOfEnergyLevels": "7",
            "firstEnergyLevel": "2",
            "secondEnergyLevel": "8",
            "thirdEnergyLevel": "18",
            "fourthEnergyLevel": "32",
            "fifthEnergyLevel": "32",
            "sixthEnergyLevel": "17",
            "seventhEnergyLevel": "1",

               "Name": "Darmstadtium",
               "Symbol": "Ds",
               "atomicNumber": "110",
               "classification": "transition-metals",
               "atomicMass": "281.0 atomic mass units",
               "numberOfProtons": "110",
               "numberOfNeutrons": "151",
               "numberOfElectrons": "110",
               "meltingPoint": "Unknown",
               "boilingPoint": "Unknown",
               "density": "Unknown",
               "normalPhase": "Synthetic",
               "family": "Transition Metals",
               "period": "7",
               "cost": "An insufficient amount has been produced to sell it.",
               "originOfName": "After Darmstadt, Germany, where it was discovered",
               "dateAndPlaceOfDiscovery": "On November 9, 1994 at the Heavy Ion Research Laboratory in Darmstadt, Germany",
               "discoveredBy": "Peter Armbruster, H. Folger, P. Hessberger, S. Hofmann, Gottfried Münzenberg, V. Ninov, H. J. Schött, and others",
               "commonCompounds": "There are no known compounds.",
               "interestingFacts": "It is one of the so-called super-heavy atoms. It decays quickly. Its isotopes have half-lives that are only microseconds long.",
               "commonUses": "There are no known uses outside the laboratory."
        },
        {
            "numberOfEnergyLevels": "7",
            "firstEnergyLevel": "2",
            "secondEnergyLevel": "8",
            "thirdEnergyLevel": "18",
            "fourthEnergyLevel": "32",
            "fifthEnergyLevel": "32",
            "sixthEnergyLevel": "18",
            "seventhEnergyLevel": "1",

               "Name": "Roentgenium",
               "Symbol": "Rg",
               "atomicNumber": "111",
               "classification": "transition-metals",
               "atomicMass": "280",
               "numberOfProtons": "111",
               "numberOfNeutrons": "161",
               "numberOfElectrons": "111",
               "meltingPoint": "Unknown",
               "boilingPoint": "Unknown",
               "density": "Unknown",
               "normalPhase": "Solid",
               "family": "Transition Metals",
               "period": "7",
               "cost": "Unavailable",
               "originOfName": "After Wilhelm Conrad Röntgen, who discovered X-rays",
               "dateAndPlaceOfDiscovery": "On December  8, 1994 at the Heavy Ion Research Laboratory in Darmstadt, Germany",
               "discoveredBy": "Team led by S. Hofmann",
               "commonCompounds": "There are no known compounds.",
               "interestingFacts": "When discovered, only three atoms were observed by the fusion of bismuth-209 and nickel-64 in a linear accelerator. Its longest lived isotope was 3.6 seconds.",
               "commonUses": "It has no known uses outside the laboratory."
        },
        {
            "group": "group 12",
            "block": "d-block",
            "period": "period 7",
            "elementCategory": "transition metal, alternatively considered a post-transition metal",
            "electronConfiguration": "5f14 6d10 7s2 (predicted)",
            "perShell": "2, 8, 18, 32, 32, 18, 2 (predicted)",
               "Symbol": "Cn",
               "Name": "copernicium",
               "atomicNumber": "112",
               "classification": "transition-metals",
               "atomicMass": "285 u",
               "electronConfiguration": "5f146d107s2",
               "phase": "gas presumably",
               "meltingPoint": "Unknown",
               "boilingPoint": "Unknown",
               "Discovered": "1996",
               "Discoverers": "Sigurd Hofmann, Victor Ninov"
        },
        {
            "group": "group 13",
            "block": "p-block",
            "period": "period 7",
            "elementCategory": "unknown, but probably a post-transition metal",
            "electronConfiguration": "5f14 6d10 7s2 7p1 (predicted)",
            "perShell": "2, 8, 18, 32, 32, 18, 3 (predicted)",
               "Symbol": "Nh",
               "Name": "nihonium",
               "atomicNumber": "113",
               "atomicMass": "284 u",
               "classification": "post-transition-metals",
               "boilingPoint": "1,130 °C",
               "electronConfiguration": "5f146d107s27p1",
               "meltingPoint": "700 K ​(430 °C, ​810 °F) (predicted)",
               "boilingPoint": "1430 K ​(1130 °C, ​2070 °F) (predicted)",
               "Discovered": "2003",
               "Discoverers": "RIKEN, Joint Institute for Nuclear Research, Lawrence Livermore National Laboratory"
        },
        {
            "group": "group 14 (carbon group)",
            "block": "p-block",
            "period": "period 7",
            "elementCategory": "post-transition metal",
            "electronConfiguration": "5f14 6d10 7s2 7p2 (predicted)",
            "perShell": "2, 8, 18, 32, 32, 18, 4 (predicted)",

               "Symbol": "Fl",
               "Name": "flerovium",
               "atomicNumber": "114",
               "atomicMass": "289 u",
               "classification": "post-transition-metals",
               "boilingPoint": "147 °C",
               "electronConfiguration": "5f146d107s27p1",
               "phase": "solid presumably",
               "meltingPoint": "340 K ​(67 °C, ​160 °F) (predicted)",
               "boilingPoint": "420 K ​(147 °C, ​297 °F) (predicted)",

               "Discovered": "1999",
               "Discoverers": "Joint Institute for Nuclear Researc, Lawrence Livermore National Laboratory"
        },
   {
            "group": "group 15 (pnictogens)",
            "block": "p-block",
            "period": "period 7",
            "elementCategory": "unknown, but probably a post-transition metal",
            "electronConfiguration": "5f14 6d10 7s2 7p3 (predicted)",
            "perShell": "2, 8, 18, 32, 32, 18, 5 (predicted)",

               "Symbol": "Mc",
               "Name": "moscovium",
               "atomicNumber": "115",
               "atomicMass": "288 u",
               "classification": "post-transition-metals",
               "bolingPoint": "~1,100 °C",
               "electronConfiguration": "5f146d107s27p3",
               "phase": "solid presumably",
               "meltingPoint": "670 K ​(400 °C, ​750 °F) (predicted)",
               "boilingPoint": "~1400 K ​(~1100 °C, ​~2000 °F) (predicted)",
               "Discovered": "2003",
               "Discoverers": "Joint Institute for Nuclear Research, Lawrence Livermore National Laboratory"
        },
  {
            "group": "group 16 (chalcogens)",
            "block": "p-block",
            "period": "period 7",
            "elementCategory": "unknown, but probably a post-transition metal",
            "electronConfiguration": "5f14 6d10 7s2 7p4 (predicted)",
            "perShell": "2, 8, 18, 32, 32, 18, 6 (predicted)",

               "Symbol": "Lv",
               "Name": "livermorium",
               "atomicNumber": "116",
               "atomicMass": "293 u",
               "classification": "post-transition-metals",
               "boilingPoint": "762–862 °C",
               "electronConfiguration": "5f146d107s27p4",
               "phase": "solid presumably",
               "meltingPoint": "637–780 K ​(364–507 °C, ​687–944 °F) (extrapolated)",
               "boilingPoint": "1035–1135 K ​(762–862 °C, ​1403–1583 °F) (extrapolated)",
               "Discovered": "2000",
                "Discoverers": "Joint Institute for Nuclear Research, Lawrence Livermore National Laboratory"
        },
  {
            "group": "group 17",
            "block": "p-block",
            "period": "period 7",
            "elementCategory": "unknown, but probably a post-transition metal",
            "electronConfiguration": "5f14 6d10 7s2 7p5 (predicted)",
            "perShell": "2, 8, 18, 32, 32, 18, 7 (predicted)",
               "Symbol": "Ts",
               "Name": "tennessine",
               "atomicNumber": "117",
               "atomicMass": "294 u",
               "classification": "metalloids",
               "bolingPoint": "610 °C",
               "electronConfiguration": "5f146d107s27p5",
               "phase": "solid presumably",
               "meltingPoint": "623–823 K ​(350–550 °C, ​662–1022 °F) (predicted)",
               "boilingPoint": "883 K ​(610 °C, ​1130 °F) (predicted)",
               "Discovered": "2010",
               "Discoverers": "Joint Institute for Nuclear Research, Lawrence Livermore National Laboratory and Oak Ridge National Laboratory"
        },
  {
            "group": "group 18",
            "block": "p-block",
            "period": "period 7",
            "elementCategory": "unknown, but predicted to be a noble gas",
            "electronConfiguration": "5f14 6d10 7s2 7p6 (predicted)",
            "perShell": "2, 8, 18, 32, 32, 18, 8 (predicted)",
               "Symbol": "Og",
               "Name": "oganesson",
               "atomicNumber": "118",
               "atomicMass": "294 u",
               "classification": "noble-gases",
               "boilingPoint": "80±30 °C",
               "electronConfiguration": "5f146d107s27p6",
               "phase": "solid presumably",
               "meltingPoint": "Unknown",
               "boilingPoint": "350±30 K ​(80±30 °C, ​170±50 °F) (extrapolated)",
               "Discovered": "2006",
               "Discoverers": "Joint Institute for Nuclear Research, Lawrence Livermore National Laboratory"
      }
]
