[
  {
   "numberOfEnergyLevels": 1,
   "firstEnergyLevel": 1,
   "secondEnergyLevel": null,
   "thirdEnergyLevel": null,
   "fourthEnergyLevel": null,
   "fifthEnergyLevel": null,
   "sixthEnergyLevel": null,
   "seventhEnergyLevel": null,

   "Name":"Hydrogen",
   "Symbol":"H",
   "atomicNumber":"1",
   "atomicMass":"1.00794 amu",
   "meltingPoint":"-259.14 °C (14.009985 K, -434.45203 °F)",
   "boilingPoint":"-252.87 °C (20.280005 K, -423.166 °F)",
   "numberOfProtons":"1",
   "numberOfNeutrons":"0", 
   "classification":"other-nonmetals",
   "crystalStructure":"Hexagonal",
   "density":"0.08988 g/cm3",
   "color":"colorless",
   "dateOfDiscovery":"1766",
   "discoverer":"Henry Cavendish",
   "nameOrigin":"From the Greek words hudôr (water) and gennan (generate)",
   "uses":"Balloons, metal refining",
   "obtainedFrom":"mines, oil, gas wells"
  },
  {
   "numberOfEnergyLevels": null,
   "firstEnergyLevel": null,
   "secondEnergyLevel": null,
   "thirdEnergyLevel": null,
   "fourthEnergyLevel": null,
   "fifthEnergyLevel": null,
   "sixthEnergyLevel": null,
   "seventhEnergyLevel": null,

   "Name": null,
   "Symbol": null,
   "atomicNumber": null,
   "atomicMass": null,
   "meltingPoint": null,
   "boilingPoint": null,
   "numberOfProtons": null,
   "numberOfNeutrons": null, 
   "classification":"empty",
   "crystalStructure": null,
   "density": null,
   "color": null,
   "dateOfDiscovery": null,
   "discoverer": null,
   "nameOrigin": null,
   "uses": null,
   "obtainedFrom": null
  },
  {
   "numberOfEnergyLevels": null,
   "firstEnergyLevel": null,
   "secondEnergyLevel": null,
   "thirdEnergyLevel": null,
   "fourthEnergyLevel": null,
   "fifthEnergyLevel": null,
   "sixthEnergyLevel": null,
   "seventhEnergyLevel": null,

   "Name": null,
   "Symbol": null,
   "atomicNumber": null,
   "atomicMass": null,
   "meltingPoint": null,
   "boilingPoint": null,
   "numberOfProtons": null,
   "numberOfNeutrons": null, 
   "classification":"empty",
   "crystalStructure": null,
   "density": null,
   "color": null,
   "dateOfDiscovery": null,
   "discoverer": null,
   "nameOrigin": null,
   "uses": null,
   "obtainedFrom": null
  },
  {
   "numberOfEnergyLevels": null,
   "firstEnergyLevel": null,
   "secondEnergyLevel": null,
   "thirdEnergyLevel": null,
   "fourthEnergyLevel": null,
   "fifthEnergyLevel": null,
   "sixthEnergyLevel": null,
   "seventhEnergyLevel": null,

   "Name": null,
   "Symbol": null,
   "atomicNumber": null,
   "atomicMass": null,
   "meltingPoint": null,
   "boilingPoint": null,
   "numberOfProtons": null,
   "numberOfNeutrons": null, 
   "classification":"empty",
   "crystalStructure": null,
   "density": null,
   "color": null,
   "dateOfDiscovery": null,
   "discoverer": null,
   "nameOrigin": null,
   "uses": null,
   "obtainedFrom": null
  },
  {
   "numberOfEnergyLevels": null,
   "firstEnergyLevel": null,
   "secondEnergyLevel": null,
   "thirdEnergyLevel": null,
   "fourthEnergyLevel": null,
   "fifthEnergyLevel": null,
   "sixthEnergyLevel": null,
   "seventhEnergyLevel": null,

   "Name": null,
   "Symbol": null,
   "atomicNumber": null,
   "atomicMass": null,
   "meltingPoint": null,
   "boilingPoint": null,
   "numberOfProtons": null,
   "numberOfNeutrons": null, 
   "classification":"empty",
   "crystalStructure": null,
   "density": null,
   "color": null,
   "dateOfDiscovery": null,
   "discoverer": null,
   "nameOrigin": null,
   "uses": null,
   "obtainedFrom": null
  },
  {
   "numberOfEnergyLevels": null,
   "firstEnergyLevel": null,
   "secondEnergyLevel": null,
   "thirdEnergyLevel": null,
   "fourthEnergyLevel": null,
   "fifthEnergyLevel": null,
   "sixthEnergyLevel": null,
   "seventhEnergyLevel": null,

   "Name": null,
   "Symbol": null,
   "atomicNumber": null,
   "atomicMass": null,
   "meltingPoint": null,
   "boilingPoint": null,
   "numberOfProtons": null,
   "numberOfNeutrons": null, 
   "classification":"empty",
   "crystalStructure": null,
   "density": null,
   "color": null,
   "dateOfDiscovery": null,
   "discoverer": null,
   "nameOrigin": null,
   "uses": null,
   "obtainedFrom": null
  },
  {
   "numberOfEnergyLevels": null,
   "firstEnergyLevel": null,
   "secondEnergyLevel": null,
   "thirdEnergyLevel": null,
   "fourthEnergyLevel": null,
   "fifthEnergyLevel": null,
   "sixthEnergyLevel": null,
   "seventhEnergyLevel": null,

   "Name": null,
   "Symbol": null,
   "atomicNumber": null,
   "atomicMass": null,
   "meltingPoint": null,
   "boilingPoint": null,
   "numberOfProtons": null,
   "numberOfNeutrons": null, 
   "classification":"empty",
   "crystalStructure": null,
   "density": null,
   "color": null,
   "dateOfDiscovery": null,
   "discoverer": null,
   "nameOrigin": null,
   "uses": null,
   "obtainedFrom": null
  },
  {
   "numberOfEnergyLevels": null,
   "firstEnergyLevel": null,
   "secondEnergyLevel": null,
   "thirdEnergyLevel": null,
   "fourthEnergyLevel": null,
   "fifthEnergyLevel": null,
   "sixthEnergyLevel": null,
   "seventhEnergyLevel": null,

   "Name": null,
   "Symbol": null,
   "atomicNumber": null,
   "atomicMass": null,
   "meltingPoint": null,
   "boilingPoint": null,
   "numberOfProtons": null,
   "numberOfNeutrons": null, 
   "classification":"empty",
   "crystalStructure": null,
   "density": null,
   "color": null,
   "dateOfDiscovery": null,
   "discoverer": null,
   "nameOrigin": null,
   "uses": null,
   "obtainedFrom": null
  },
  {
   "numberOfEnergyLevels": null,
   "firstEnergyLevel": null,
   "secondEnergyLevel": null,
   "thirdEnergyLevel": null,
   "fourthEnergyLevel": null,
   "fifthEnergyLevel": null,
   "sixthEnergyLevel": null,
   "seventhEnergyLevel": null,

   "Name": null,
   "Symbol": null,
   "atomicNumber": null,
   "atomicMass": null,
   "meltingPoint": null,
   "boilingPoint": null,
   "numberOfProtons": null,
   "numberOfNeutrons": null, 
   "classification":"empty",
   "crystalStructure": null,
   "density": null,
   "color": null,
   "dateOfDiscovery": null,
   "discoverer": null,
   "nameOrigin": null,
   "uses": null,
   "obtainedFrom": null
  },
  {
   "numberOfEnergyLevels": null,
   "firstEnergyLevel": null,
   "secondEnergyLevel": null,
   "thirdEnergyLevel": null,
   "fourthEnergyLevel": null,
   "fifthEnergyLevel": null,
   "sixthEnergyLevel": null,
   "seventhEnergyLevel": null,

   "Name": null,
   "Symbol": null,
   "atomicNumber": null,
   "atomicMass": null,
   "meltingPoint": null,
   "boilingPoint": null,
   "numberOfProtons": null,
   "numberOfNeutrons": null, 
   "classification":"empty",
   "crystalStructure": null,
   "density": null,
   "color": null,
   "dateOfDiscovery": null,
   "discoverer": null,
   "nameOrigin": null,
   "uses": null,
   "obtainedFrom": null
  },
  {
   "numberOfEnergyLevels": null,
   "firstEnergyLevel": null,
   "secondEnergyLevel": null,
   "thirdEnergyLevel": null,
   "fourthEnergyLevel": null,
   "fifthEnergyLevel": null,
   "sixthEnergyLevel": null,
   "seventhEnergyLevel": null,

   "Name": null,
   "Symbol": null,
   "atomicNumber": null,
   "atomicMass": null,
   "meltingPoint": null,
   "boilingPoint": null,
   "numberOfProtons": null,
   "numberOfNeutrons": null, 
   "classification":"empty",
   "crystalStructure": null,
   "density": null,
   "color": null,
   "dateOfDiscovery": null,
   "discoverer": null,
   "nameOrigin": null,
   "uses": null,
   "obtainedFrom": null
  },
  {
   "numberOfEnergyLevels": null,
   "firstEnergyLevel": null,
   "secondEnergyLevel": null,
   "thirdEnergyLevel": null,
   "fourthEnergyLevel": null,
   "fifthEnergyLevel": null,
   "sixthEnergyLevel": null,
   "seventhEnergyLevel": null,

   "Name": null,
   "Symbol": null,
   "atomicNumber": null,
   "atomicMass": null,
   "meltingPoint": null,
   "boilingPoint": null,
   "numberOfProtons": null,
   "numberOfNeutrons": null, 
   "classification":"empty",
   "crystalStructure": null,
   "density": null,
   "color": null,
   "dateOfDiscovery": null,
   "discoverer": null,
   "nameOrigin": null,
   "uses": null,
   "obtainedFrom": null
  },
  {
   "numberOfEnergyLevels": null,
   "firstEnergyLevel": null,
   "secondEnergyLevel": null,
   "thirdEnergyLevel": null,
   "fourthEnergyLevel": null,
   "fifthEnergyLevel": null,
   "sixthEnergyLevel": null,
   "seventhEnergyLevel": null,

   "Name": null,
   "Symbol": null,
   "atomicNumber": null,
   "atomicMass": null,
   "meltingPoint": null,
   "boilingPoint": null,
   "numberOfProtons": null,
   "numberOfNeutrons": null, 
   "classification":"empty",
   "crystalStructure": null,
   "density": null,
   "color": null,
   "dateOfDiscovery": null,
   "discoverer": null,
   "nameOrigin": null,
   "uses": null,
   "obtainedFrom": null
  },
  {
   "numberOfEnergyLevels": null,
   "firstEnergyLevel": null,
   "secondEnergyLevel": null,
   "thirdEnergyLevel": null,
   "fourthEnergyLevel": null,
   "fifthEnergyLevel": null,
   "sixthEnergyLevel": null,
   "seventhEnergyLevel": null,

   "Name": null,
   "Symbol": null,
   "atomicNumber": null,
   "atomicMass": null,
   "meltingPoint": null,
   "boilingPoint": null,
   "numberOfProtons": null,
   "numberOfNeutrons": null, 
   "classification":"empty",
   "crystalStructure": null,
   "density": null,
   "color": null,
   "dateOfDiscovery": null,
   "discoverer": null,
   "nameOrigin": null,
   "uses": null,
   "obtainedFrom": null
  },
  {
   "numberOfEnergyLevels": null,
   "firstEnergyLevel": null,
   "secondEnergyLevel": null,
   "thirdEnergyLevel": null,
   "fourthEnergyLevel": null,
   "fifthEnergyLevel": null,
   "sixthEnergyLevel": null,
   "seventhEnergyLevel": null,

   "Name": null,
   "Symbol": null,
   "atomicNumber": null,
   "atomicMass": null,
   "meltingPoint": null,
   "boilingPoint": null,
   "numberOfProtons": null,
   "numberOfNeutrons": null, 
   "classification":"empty",
   "crystalStructure": null,
   "density": null,
   "color": null,
   "dateOfDiscovery": null,
   "discoverer": null,
   "nameOrigin": null,
   "uses": null,
   "obtainedFrom": null
  },
  {
   "numberOfEnergyLevels": null,
   "firstEnergyLevel": null,
   "secondEnergyLevel": null,
   "thirdEnergyLevel": null,
   "fourthEnergyLevel": null,
   "fifthEnergyLevel": null,
   "sixthEnergyLevel": null,
   "seventhEnergyLevel": null,

   "Name": null,
   "Symbol": null,
   "atomicNumber": null,
   "atomicMass": null,
   "meltingPoint": null,
   "boilingPoint": null,
   "numberOfProtons": null,
   "numberOfNeutrons": null, 
   "classification":"empty",
   "crystalStructure": null,
   "density": null,
   "color": null,
   "dateOfDiscovery": null,
   "discoverer": null,
   "nameOrigin": null,
   "uses": null,
   "obtainedFrom": null
  },
  {
   "numberOfEnergyLevels": null,
   "firstEnergyLevel": null,
   "secondEnergyLevel": null,
   "thirdEnergyLevel": null,
   "fourthEnergyLevel": null,
   "fifthEnergyLevel": null,
   "sixthEnergyLevel": null,
   "seventhEnergyLevel": null,

   "Name": null,
   "Symbol": null,
   "atomicNumber": null,
   "atomicMass": null,
   "meltingPoint": null,
   "boilingPoint": null,
   "numberOfProtons": null,
   "numberOfNeutrons": null, 
   "classification":"empty",
   "crystalStructure": null,
   "density": null,
   "color": null,
   "dateOfDiscovery": null,
   "discoverer": null,
   "nameOrigin": null,
   "uses": null,
   "obtainedFrom": null
  },
  {
   "numberOfEnergyLevels": 1,
   "firstEnergyLevel": 2,
   "secondEnergyLevel": null,
   "thirdEnergyLevel": null,
   "fourthEnergyLevel": null,
   "fifthEnergyLevel": null,
   "sixthEnergyLevel": null,
   "seventhEnergyLevel": null,

   "Name":"Helium",
   "Symbol":"He",
   "atomicNumber":"2",
   "atomicMass":"4.002602 amu",
   "meltingPoint":"-272.0 °C (1.15 K, -457.6 °F)",
   "boilingPoint":"-268.6 °C (4.549994 K, -451.48 °F)",
   "numberOfProtons":" 2",
   "numberOfNeutrons":"2",
   "classification":"noble-gases",
   "crystalStructure":"Hexagonal",
   "density":"0.1785 g/cm3",
   "color":"colorless",
   "dateOfDiscovery":"1895",
   "discoverer":"Sir William Ramsay",
   "nameOrigin":"From the Greek word hêlios (sun)",
   "uses":"balloons, deep sea diving",
   "obtainedFrom":"natural gas deposit, air"
  }
]
