
[
  {
           "numberOfEnergyLevels": null,
           "firstEnergyLevel": null,
           "secondEnergyLevel": null,
           "thirdEnergyLevel": null,
           "fourthEnergyLevel": null,
     "fifthEnergyLevel": null,
     "sixthEnergyLevel": null,
     "seventhEnergyLevel": null,

              "Name": null,
              "Symbol": null,
              "atomicNumber": null,
              "atomicMass": null,
              "meltingPoint": null,
              "boilingPoint": null,
              "numberOfProtons": null,
              "numberOfNeutrons": null, 
              "classification":"empty",
              "crystalStructure": null,
              "density": null,
              "color": null,
              "dateOfDiscovery": null,
              "discoverer": null,
              "nameOrigin": null,
              "uses": null,
              "obtainedFrom": null
        },
        {
           "numberOfEnergyLevels": null,
           "firstEnergyLevel": null,
           "secondEnergyLevel": null,
           "thirdEnergyLevel": null,
           "fourthEnergyLevel": null,
     "fifthEnergyLevel": null,
     "sixthEnergyLevel": null,
     "seventhEnergyLevel": null,

              "Name": null,
              "Symbol": null,
              "atomicNumber": null,
              "atomicMass": null,
              "meltingPoint": null,
              "boilingPoint": null,
              "numberOfProtons": null,
              "numberOfNeutrons": null, 
              "classification":"empty",
              "crystalStructure": null,
              "density": null,
              "color": null,
              "dateOfDiscovery": null,
              "discoverer": null,
              "nameOrigin": null,
              "uses": null,
              "obtainedFrom": null
        },
  {
           "numberOfEnergyLevels": 7,

           "firstEnergyLevel": 2 ,
           "secondEnergyLevel": 8 ,
           "thirdEnergyLevel": 18 ,
           "fourthEnergyLevel": 32 ,
           "fifthEnergyLevel": 18 ,
           "sixthEnergyLevel": 9 ,
           "seventhEnergyLevel": 2,
              "Name":"Actinium",
              "Symbol":"Ac",
              "atomicNumber":"89",
              "atomicMass":"(227.0) amu",
              "meltingPoint":"1050.0 °C (1323.15 K, 1922.0 °F)",
              "boilingPoint":"3200.0 °C (3473.15 K, 5792.0 °F)",
              "numberOfProtons":" 89",
              "numberOfNeutrons":"138",
              "classification":"actinoids",
              "crystalStructure":"Cubic",
              "density":"10.07 g/cm3",
              "color":"Silvery",
              "dateOfDiscovery":"1899",
              "discoverer":"Andre Debierne",
              "nameOrigin":"From the Greek word aktinos (ray)",
              "uses":"No uses known",
              "obtainedFrom":"extremely rare"
        },
        {
           "numberOfEnergyLevels": 7,

           "firstEnergyLevel": 2 ,
           "secondEnergyLevel": 8 ,
           "thirdEnergyLevel": 18 ,
           "fourthEnergyLevel": 32 ,
           "fifthEnergyLevel": 18 ,
           "sixthEnergyLevel": 10 ,
           "seventhEnergyLevel": 2,
              "Name":"Thorium",
              "Symbol":"Th",
              "atomicNumber":"90",
              "atomicMass":"232.0381 amu",
              "meltingPoint":"1750.0 °C (2023.15 K, 3182.0 °F)",
              "boilingPoint":"4790.0 °C (5063.15 K, 8654.0 °F)",
              "numberOfProtons":" 90",
              "numberOfNeutrons":"142",
              "classification":"actinoids",
              "crystalStructure":"Cubic",
              "density":"11.72 g/cm3",
              "color":"silvery",
              "dateOfDiscovery":"1828",
              "discoverer":"Jons Berzelius",
              "nameOrigin":"Thor (Scandinavian god)",
              "uses":"strong alloys, ultraviolet photoelectric cells",
              "obtainedFrom":"monazite, thorite"

        },
        {
           "numberOfEnergyLevels": 7,

           "firstEnergyLevel": 2 ,
           "secondEnergyLevel": 8 ,
           "thirdEnergyLevel": 18 ,
           "fourthEnergyLevel": 32 ,
           "fifthEnergyLevel": 20 ,
           "sixthEnergyLevel": 9 ,
           "seventhEnergyLevel": 2,
              "Name":"Protactinium",
              "Symbol":"Pa",
              "atomicNumber":"91",
              "atomicMass":"231.03587 amu",
              "meltingPoint":"1600.0 °C (1873.15 K, 2912.0 °F)",
              "boilingPoint":"Unknown",
              "numberOfProtons":" 91",
              "numberOfNeutrons":"140",
              "classification":"actinoids",
              "crystalStructure":"Orthorhombic",
              "density":"15.4 g/cm3",
              "color":"Unknown",
              "dateOfDiscovery":"1917",
              "discoverer":"Fredrich Soddy",
              "nameOrigin":"From the Greek word protos (first)",
              "uses":"No uses known",
              "obtainedFrom":"fission product of uranium, thorium, plutonium"
        },
        {
           "numberOfEnergyLevels": 7,

           "firstEnergyLevel": 2 ,
           "secondEnergyLevel": 8 ,
           "thirdEnergyLevel": 18 ,
           "fourthEnergyLevel": 32 ,
           "fifthEnergyLevel": 21 ,
           "sixthEnergyLevel": 9 ,
           "seventhEnergyLevel": 2,
              "Name":"Uranium",
              "Symbol":"U",
              "atomicNumber":"92",
              "atomicMass":"238.0289 amu",
              "meltingPoint":"1132.0 °C (1405.15 K, 2069.6 °F)",
              "boilingPoint":"3818.0 °C (4091.15 K, 6904.4 °F)",
              "numberOfProtons":" 92",
              "numberOfNeutrons":"146",
              "classification":"actinoids",
              "crystalStructure":"Orthorhombic",
              "density":"18.95 g/cm3",
              "color":"silverish",
       "dateOfDiscovery":"1789",
              "discoverer":"Martin Klaproth",
              "nameOrigin":"After the planet Uranus",
              "uses":"fuel for nuclear reactors",
              "obtainedFrom":"many rocks, large amounts in pitchblende and carnotite"

        },
        {
           "numberOfEnergyLevels": 7,

           "firstEnergyLevel": 2 ,
           "secondEnergyLevel": 8 ,
           "thirdEnergyLevel": 18 ,
           "fourthEnergyLevel": 32 ,
           "fifthEnergyLevel": 23 ,
           "sixthEnergyLevel": 8 ,
           "seventhEnergyLevel": 2,
              "Name":"Neptunium",
              "Symbol":"Np",
              "atomicNumber":"93",
              "atomicMass":"(237.0) amu",
              "meltingPoint":"640.0 °C (913.15 K, 1184.0 °F)",
              "boilingPoint":"3902.0 °C (4175.15 K, 7055.6 °F)",
              "numberOfProtons":" 93",
              "numberOfNeutrons":"144",
              "classification":"actinoids",
              "crystalStructure":"Orthorhombic",
              "density":"20.45 g/cm3",
              "color":"Unknown",
       "dateOfDiscovery":"1940",
              "discoverer":"E.M. McMillan",
              "nameOrigin":"After the planet Neptune",
              "uses":"No uses known",
              "obtainedFrom":"Man-made"
        },
        {
           "numberOfEnergyLevels": 7,

           "firstEnergyLevel": 2 ,
           "secondEnergyLevel": 8 ,
           "thirdEnergyLevel": 18 ,
           "fourthEnergyLevel": 32 ,
           "fifthEnergyLevel": 24 ,
           "sixthEnergyLevel": 8 ,
           "seventhEnergyLevel": 2,
              "Name":"Plutonium",
              "Symbol":"Pu",
              "atomicNumber":"94",
              "atomicMass":"(244.0) amu",
              "meltingPoint":"639.5 °C (912.65 K, 1183.1 °F)",
              "boilingPoint":"3235.0 °C (3508.15 K, 5855.0 °F)",
              "numberOfProtons":" 94",
              "numberOfNeutrons":"150",
              "classification":"actinoids",
              "crystalStructure":"Monoclinic",
              "density":"19.84 g/cm3",
              "color":"Unknown",
              "dateOfDiscovery":"1940",
              "discoverer":"G.T. Seaborg",
              "nameOrigin":"After the planet Pluto",
              "uses":"bombs, nuclear reactors",
              "obtainedFrom":"some uranium ores, man-made"

        },
        {
           "numberOfEnergyLevels": 7,

           "firstEnergyLevel": 2 ,
           "secondEnergyLevel": 8 ,
           "thirdEnergyLevel": 18 ,
           "fourthEnergyLevel": 32 ,
           "fifthEnergyLevel": 25 ,
           "sixthEnergyLevel": 8 ,
           "seventhEnergyLevel": 2,
              "Name":"Americium",
              "Symbol":"Am",
              "atomicNumber":"95",
              "atomicMass":"(243.0) amu",
              "meltingPoint":"994.0 °C (1267.15 K, 1821.2 °F)",
              "boilingPoint":"2607.0 °C (2880.15 K, 4724.6 °F)",
              "numberOfProtons":" 95",
              "numberOfNeutrons":"148",
              "classification":"actinoids",
              "crystalStructure":"Hexagonal",
              "density":"13.6 g/cm3",
              "color":"Unknown",
       "dateOfDiscovery":"1945",
              "discoverer":"G.T. Seaborg",
              "nameOrigin":"After America",
              "uses":"Smoke Detectors",
              "obtainedFrom":"Man-made"

        },
        {
           "numberOfEnergyLevels": 7,

           "firstEnergyLevel": 2 ,
           "secondEnergyLevel": 8 ,
           "thirdEnergyLevel": 18 ,
           "fourthEnergyLevel": 32 ,
           "fifthEnergyLevel": 25 ,
           "sixthEnergyLevel": 9 ,
           "seventhEnergyLevel": 2,
              "Name":"Curium",
              "Symbol":"Cm",
              "atomicNumber":"96",
              "atomicMass":"(247.0) amu",
              "meltingPoint":"1340.0 °C (1613.15 K, 2444.0 °F)",
              "boilingPoint":"Unknown",
              "numberOfProtons":" 96",
              "numberOfNeutrons":"151",
              "classification":"actinoids",
              "crystalStructure":"Unknown",
              "density":"13.511 g/cm3",
              "color":"Unknown",
       "dateOfDiscovery":"1944",
              "discoverer":"G.T. Seaborg",
              "nameOrigin":"After Pierre and Marie Curie",
              "uses":"No uses known",
              "obtainedFrom":"Man-made"
        },
        {
           "numberOfEnergyLevels": 7,
           "firstEnergyLevel": 2 ,
           "secondEnergyLevel": 8 ,
           "thirdEnergyLevel": 18 ,
           "fourthEnergyLevel": 32 ,
           "fifthEnergyLevel": 26 ,
           "sixthEnergyLevel": 9 ,
           "seventhEnergyLevel": 2,
              "Name":"Berkelium",
              "Symbol":"Bk",
              "atomicNumber":"97",
              "atomicMass":"(247.0) amu",
              "meltingPoint":"Unknown",
              "boilingPoint":"Unknown",
              "numberOfProtons":" 97",
              "numberOfNeutrons":"150",
              "classification":"actinoids",
              "crystalStructure":"Unknown",
              "density":"Unknown",
              "color":"Unknown",
       "dateOfDiscovery":"1949",
              "discoverer":"G.T. Seaborg",
              "nameOrigin":"After Berkeley, California",
              "uses":"No uses known",
              "obtainedFrom":"Man-made"
        },
        {
           "numberOfEnergyLevels": 7,
           "firstEnergyLevel": 2 ,
           "secondEnergyLevel": 8 ,
           "thirdEnergyLevel": 18 ,
           "fourthEnergyLevel": 32 ,
           "fifthEnergyLevel": 28 ,
           "sixthEnergyLevel": 8 ,
           "seventhEnergyLevel": 2,
              "Name":"Californium",
              "Symbol":"Cf",
              "atomicNumber":"98",
              "atomicMass":"(251.0) amu",
              "meltingPoint":"Unknown",
              "boilingPoint":"Unknown",
              "numberOfProtons":" 98",
              "numberOfNeutrons":"153",
              "classification":"actinoids",
              "crystalStructure":"Unknown",
              "density":"Unknown",
              "color":"Unknown",
              "dateOfDiscovery":"1950",
              "discoverer":"G.T. Seaborg",
              "nameOrigin":"California (State and University)",
              "uses":"No uses known",
              "obtainedFrom":"Man-made"
        },
        {
           "numberOfEnergyLevels": 7,
           "firstEnergyLevel": 2 ,
           "secondEnergyLevel": 8 ,
           "thirdEnergyLevel": 18 ,
           "fourthEnergyLevel": 32 ,
           "fifthEnergyLevel": 29 ,
           "sixthEnergyLevel": 8 ,
           "seventhEnergyLevel": 2,
              "Name":"Einsteinium",
              "Symbol":"Es",
              "atomicNumber":"99",
              "atomicMass":"(252.0) amu",
              "meltingPoint":"Unknown",
              "boilingPoint":"Unknown",
              "numberOfProtons":" 99",
              "numberOfNeutrons":"153",
              "classification":"actinoids",
              "crystalStructure":"Unknown",
              "density":"Unknown",
              "color":"Unknown",
              "dateOfDiscovery":"1952",
              "discoverer":"Argonne, Los Alamos, University of California",
              "nameOrigin":"After Albert Einstein",
              "uses":"No uses known",
              "obtainedFrom":"Man-made"

        },
        {
           "numberOfEnergyLevels": 7,
           "firstEnergyLevel": 2 ,
           "secondEnergyLevel": 8 ,
           "thirdEnergyLevel": 18 ,
           "fourthEnergyLevel": 32 ,
           "fifthEnergyLevel": 30 ,
           "sixthEnergyLevel": 8 ,
           "seventhEnergyLevel": 2,
              "Name":"Fermium",
              "Symbol":"Fm",
              "atomicNumber":"100",
              "atomicMass":"(257.0) amu",
              "meltingPoint":"Unknown",
              "boilingPoint":"Unknown",
              "numberOfProtons":" 100",
              "numberOfNeutrons":"157",
              "classification":"actinoids",
              "crystalStructure":"Unknown",
              "density":"Unknown",
              "color":"Unknown",
              "dateOfDiscovery":"1953",
              "discoverer":"Argonne, Los Alamos, University of California",
              "nameOrigin":"After Enrico Fermi",
              "uses":"No uses known",
              "obtainedFrom":"Man-made"
        },
        {
           "numberOfEnergyLevels": 7,
           "firstEnergyLevel": 2 ,
           "secondEnergyLevel": 8 ,
           "thirdEnergyLevel": 18 ,
           "fourthEnergyLevel": 32 ,
           "fifthEnergyLevel": 31 ,
           "sixthEnergyLevel": 8 ,
           "seventhEnergyLevel": 2,
              "Name":"Mendelevium",
              "Symbol":"Md",
              "atomicNumber":"101",
              "atomicMass":"(258.0) amu",
              "meltingPoint":"Unknown",
              "boilingPoint":"Unknown",
              "numberOfProtons":" 101",
              "numberOfNeutrons":"157",
              "classification":"actinoids",
              "crystalStructure":"Unknown",
              "density":"Unknown",
              "color":"Unknown",
              "dateOfDiscovery":"1955",
              "discoverer":"G.T. Seaborg",
              "nameOrigin":"After Dmitri Ivanovitch Mendeleyev",
              "uses":"No uses known",
              "obtainedFrom":"Man-made"
        },
        {
           "numberOfEnergyLevels": 7,
           "firstEnergyLevel": 2 ,
           "secondEnergyLevel": 8 ,
           "thirdEnergyLevel": 18 ,
           "fourthEnergyLevel": 32 ,
           "fifthEnergyLevel": 32 ,
           "sixthEnergyLevel": 8 ,
           "seventhEnergyLevel": 2,
              "Name":"Nobelium",
              "Symbol":"No",
              "atomicNumber":"102",
              "atomicMass":"(259.0) amu",
              "meltingPoint":"Unknown",
              "boilingPoint":"Unknown",
              "numberOfProtons":" 102",
              "numberOfNeutrons":"157",
              "classification":"actinoids",
              "crystalStructure":"Unknown",
              "density":"Unknown",
              "color":"Unknown",
              "dateOfDiscovery":"1957",
              "discoverer":"Nobel Institute for Physics",
              "nameOrigin":"After Alfred Nobel",
              "uses":"No uses known",
              "obtainedFrom":"Man-made"
        },
        {
           "numberOfEnergyLevels": 7,
           "firstEnergyLevel": 2 ,
           "secondEnergyLevel": 8 ,
           "thirdEnergyLevel": 18 ,
           "fourthEnergyLevel": 32 ,
           "fifthEnergyLevel": 32 ,
           "sixthEnergyLevel": 9 ,
           "seventhEnergyLevel": 2,
              "Name":"Lawrencium",
              "Symbol":"Lr",
              "atomicNumber":"103",
              "atomicMass":"(262.0) amu",
              "meltingPoint":"Unknown",
              "boilingPoint":"Unknown",
              "numberOfProtons":" 103",
              "numberOfNeutrons":"159",
              "classification":"actinoids",
              "crystalStructure":"Unknown",
              "density":"Unknown",
              "color":"Unknown",
              "dateOfDiscovery":"1961",
              "discoverer":"Albert Ghiorso",
              "nameOrigin":"After Ernest Lawrence",
              "uses":"No uses known",
              "obtainedFrom":"Man-made"

        },
  {
           "numberOfEnergyLevels": null,
           "firstEnergyLevel": null,
           "secondEnergyLevel": null,
           "thirdEnergyLevel": null,
           "fourthEnergyLevel": null,
     "fifthEnergyLevel": null,
     "sixthEnergyLevel": null,
     "seventhEnergyLevel": null,

              "Name": null,
              "Symbol": null,
              "atomicNumber": null,
              "atomicMass": null,
              "meltingPoint": null,
              "boilingPoint": null,
              "numberOfProtons": null,
              "numberOfNeutrons": null, 
              "classification":"empty",
              "crystalStructure": null,
              "density": null,
              "color": null,
              "dateOfDiscovery": null,
              "discoverer": null,
              "nameOrigin": null,
              "uses": null,
              "obtainedFrom": null
        }
]
