[
  {
            "numberOfEnergyLevels": null,
            "firstEnergyLevel": null,
            "secondEnergyLevel": null,
            "thirdEnergyLevel": null,
            "fourthEnergyLevel": null,
      "fifthEnergyLevel": null,
      "sixthEnergyLevel": null,
      "seventhEnergyLevel": null,

               "Name": null,
               "Symbol": null,
               "atomicNumber": null,
               "atomicMass": null,
               "meltingPoint": null,
               "boilingPoint": null,
               "numberOfProtons": null,
               "numberOfNeutrons": null, 
               "classification": "empty",
               "crystalStructure": null,
               "density@293K": null,
               "color": null,
               "dateOfDiscovery": null,
               "discoverer": null,
               "nameOrigin": null,
               "uses": null,
               "obtainedFrom": null
        },
  {
            "numberOfEnergyLevels": null,
            "firstEnergyLevel": null,
            "secondEnergyLevel": null,
            "thirdEnergyLevel": null,
            "fourthEnergyLevel": null,
      "fifthEnergyLevel": null,
      "sixthEnergyLevel": null,
      "seventhEnergyLevel": null,

               "Name": null,
               "Symbol": null,
               "atomicNumber": null,
               "atomicMass": null,
               "meltingPoint": null,
               "boilingPoint": null,
               "numberOfProtons": null,
               "numberOfNeutrons": null, 
               "classification": "empty",
               "crystalStructure": null,
               "density@293K": null,
               "color": null,
               "dateOfDiscovery": null,
               "discoverer": null,
               "nameOrigin": null,
               "uses": null,
               "obtainedFrom": null
        },
  {
            "numberOfEnergyLevels": 6,

            "firstEnergyLevel": 2 ,
            "secondEnergyLevel": 8 ,
            "thirdEnergyLevel": 18 ,
            "fourthEnergyLevel": 18 ,
            "fifthEnergyLevel": 9 ,
            "sixthEnergyLevel": 2,
            "seventhEnergyLevel": null,

               "Name": "Lanthanum ",
               "Symbol": "La ",
               "atomicNumber": "57 ",
               "atomicMass": "138.9055 amu ",
               "meltingPoint": "920.0 °C (1193.15 K, 1688.0 °F) ",
               "boilingPoint": "3469.0 °C (3742.15 K, 6276.2 °F) ",
               "numberOfProtons": " 57 ",
               "numberOfNeutrons": "82 ",
               "classification": "lanthanoids",
               "crystalStructure": "Hexagonal ",
               "density@293K": "6.7 g/cm3 ",
               "color": "white",
        "dateOfDiscovery": "1839",
               "discoverer": "Carl Mosander ",
               "nameOrigin": "From the Greek word lanthaneis (to lie hidden) ",
               "uses": "expensive camera lenses ",
               "obtainedFrom": "monazite, bastnasite "
        },
  {
            "numberOfEnergyLevels": 6,

            "firstEnergyLevel": 2 ,
            "secondEnergyLevel": 8 ,
            "thirdEnergyLevel": 18 ,
            "fourthEnergyLevel": 20 ,
            "fifthEnergyLevel": 8 ,
            "sixthEnergyLevel": 2,
            "seventhEnergyLevel": null,

               "Name": "Cerium ",
               "Symbol": "Ce ",
               "atomicNumber": "58 ",
               "atomicMass": "140.116 amu ",
               "meltingPoint": "795.0 °C (1068.15 K, 1463.0 °F) ",
               "boilingPoint": "3257.0 °C (3530.15 K, 5894.6 °F) ",
               "numberOfProtons": " 58 ",
               "numberOfNeutrons": "82 ",
               "classification": "lanthanoids",
               "crystalStructure": "Cubic ",
               "density@293K": "6.773 g/cm3 ",
               "color": "gray",
               "dateOfDiscovery": "1803 ",
               "discoverer": "W. von Hisinger ",
               "nameOrigin": "Ceres (asteroid) ",
               "uses": "heat-resistant alloys ",
               "obtainedFrom": "monazite"
        },
  {
            "numberOfEnergyLevels": 6,

            "firstEnergyLevel": 2 ,
            "secondEnergyLevel": 8 ,
            "thirdEnergyLevel": 18 ,
            "fourthEnergyLevel": 21 ,
            "fifthEnergyLevel": 8 ,
            "sixthEnergyLevel": 2,
            "seventhEnergyLevel": null,

               "Name": "Praseodymium ",
               "Symbol": "Pr ",
               "atomicNumber": "59 ",
               "atomicMass": "140.90765 amu ",
               "meltingPoint": "935.0 °C (1208.15 K, 1715.0 °F) ",
               "boilingPoint": "3127.0 °C (3400.15 K, 5660.6 °F) ",
               "numberOfProtons": " 59 ",
               "numberOfNeutrons": "82 ",
               "classification": "lanthanoids",
               "crystalStructure": "Hexagonal ",
               "density@293K": "6.77 g/cm3 ",
               "color": "Unknown",
               "dateOfDiscovery": "1885 ",
               "discoverer": "C.F. Aver von Welsbach ",
               "nameOrigin": "From the Greek words prasios (green) and didymos (twin) ",
               "uses": "coloring glass and ceramics ",
               "obtainedFrom": "salts "
        },
  {
            "numberOfEnergyLevels": 6,

            "firstEnergyLevel": 2 ,
            "secondEnergyLevel": 8 ,
            "thirdEnergyLevel": 18 ,
            "fourthEnergyLevel": 22 ,
            "fifthEnergyLevel": 8 ,
            "sixthEnergyLevel": 2,
            "seventhEnergyLevel": null,

               "Name": "Neodymium ",
                "Symbol": "Nd ",
               "atomicNumber": "60 ",
               "atomicMass": "144.24 amu ",
               "meltingPoint": "1010.0 °C (1283.15 K, 1850.0 °F) ",
               "boilingPoint": "3127.0 °C (3400.15 K, 5660.6 °F) ",
               "numberOfProtons": " 60 ",
               "numberOfNeutrons": "84 ",
               "classification": "lanthanoids",
               "crystalStructure": "Hexagonal ",
               "density@293K": "7.007 g/cm3 ",
               "color": "silvery",
               "dateOfDiscovery": "1925 ",
                "discoverer": "C.F. Aver von Welsbach ",
               "nameOrigin": "From the Greek words neos (new) and didymos (twin) ",
               "uses": "coloring glass and ceramics, infrared radiation filtering ",
               "obtainedFrom": "electrolysis of salts "
        },
  {
            "numberOfEnergyLevels": 6,

            "firstEnergyLevel": 2 ,
            "secondEnergyLevel": 8 ,
            "thirdEnergyLevel": 18 ,
            "fourthEnergyLevel": 23 ,
            "fifthEnergyLevel": 8 ,
            "sixthEnergyLevel": 2,
            "seventhEnergyLevel": null,

               "Name": "Promethium ",
               "Symbol": "Pm ",
               "atomicNumber": "61 ",
               "atomicMass": "(145.0) amu ",
               "meltingPoint": "Unknown ",
               "boilingPoint": "Unknown ",
               "numberOfProtons": " 61 ",
               "numberOfNeutrons": "84 ",
               "classification": "lanthanoids",
               "crystalStructure": "Hexagonal ",
               "density@293K": "6.475 g/cm3 ",
               "color": "Unknown",
               "dateOfDiscovery": "1945 ",
                "discoverer": "J.A. Marinsky ",
               "nameOrigin": "From the god Prometheus (who stole fire of the sky and gave it to man) ",
               "uses": "No uses known ",
               "obtainedFrom": "fission products of uranium, thorium, plutonium "
        },
{
            "numberOfEnergyLevels": 6,

            "firstEnergyLevel": 2 ,
            "secondEnergyLevel": 8 ,
            "thirdEnergyLevel": 18 ,
            "fourthEnergyLevel": 24 ,
            "fifthEnergyLevel": 8 ,
            "sixthEnergyLevel": 2,
            "seventhEnergyLevel": null,

               "Name": "Samarium ",
               "Symbol": "Sm ",
               "atomicNumber": "62 ",
               "atomicMass": "150.36 amu ",
               "meltingPoint": "1072.0 °C (1345.15 K, 1961.6 °F) ",
               "boilingPoint": "1900.0 °C (2173.15 K, 3452.0 °F) ",
               "numberOfProtons": " 62 ",
               "numberOfNeutrons": "88 ",
               "classification": "lanthanoids",
               "crystalStructure": "Rhombohedral ",
               "density@293K": "7.54 g/cm3 ",
               "color": "silver",
               "dateOfDiscovery": "1879 ",
                "discoverer": "Paul Emile Lecoq de Boisbaudran ",
               "nameOrigin": "smarskite (mineral) ",
               "uses": "used in magnets, in alloys with cobalt, and nuclear reactors ",
               "obtainedFrom": "found with other rare earths "

        },
  {
            "numberOfEnergyLevels": 6,

            "firstEnergyLevel": 2 ,
            "secondEnergyLevel": 8 ,
            "thirdEnergyLevel": 18 ,
            "fourthEnergyLevel": 25 ,
            "fifthEnergyLevel": 8 ,
            "sixthEnergyLevel": 2,
            "seventhEnergyLevel": null,

               "Name": "Europium ",
               "Symbol": "Eu ",
               "atomicNumber": "63 ",
               "atomicMass": "151.964 amu ",
               "meltingPoint": "822.0 °C (1095.15 K, 1511.6 °F) ",
               "boilingPoint": "1597.0 °C (1870.15 K, 2906.6 °F) ",
               "numberOfProtons": " 63 ",
               "numberOfNeutrons": "89 ",
               "classification": "lanthanoids",
               "crystalStructure": "Cubic ",
               "density@293K": "5.259 g/cm3 ",
               "color": "silver",
               "dateOfDiscovery": "1901 ",
               "discoverer": "Eugene Demarcay ",
               "nameOrigin": "Europe ",
               "uses": "color televisions ",
               "obtainedFrom": "Man-made "

        },
{
            "numberOfEnergyLevels": 6,

            "firstEnergyLevel": 2 ,
            "secondEnergyLevel": 8 ,
            "thirdEnergyLevel": 18 ,
            "fourthEnergyLevel": 25 ,
            "fifthEnergyLevel": 9 ,
            "sixthEnergyLevel": 2,
            "seventhEnergyLevel": null,

               "Name": "Gadolinium ",
               "Symbol": "Gd ",
               "atomicNumber": "64 ",
               "atomicMass": "157.25 amu ",
               "meltingPoint": "1311.0 °C (1584.15 K, 2391.8 °F) ",
               "boilingPoint": "3233.0 °C (3506.15 K, 5851.4 °F) ",
               "numberOfProtons": " 64 ",
               "numberOfNeutrons": "93 ",
               "classification": "lanthanoids",
               "crystalStructure": "Hexagonal ",
               "density@293K": "7.895 g/cm3 ",
               "color": "Silverish",
               "dateOfDiscovery": "1880 ",
               "discoverer": "Jean de Marignac ",
               "nameOrigin": "gadolinite (mineral) ",
               "uses": "magnetic ",
               "obtainedFrom": "gadolinite"
        },
 {
            "numberOfEnergyLevels": 6,

            "firstEnergyLevel": 2 ,
            "secondEnergyLevel": 8 ,
            "thirdEnergyLevel": 18 ,
            "fourthEnergyLevel": 27 ,
            "fifthEnergyLevel": 8 ,
            "sixthEnergyLevel": 2,
            "seventhEnergyLevel": null,

               "Name": "Terbium ",
               "Symbol": "Tb ",
               "atomicNumber": "65 ",
               "atomicMass": "158.92534 amu ",
               "meltingPoint": "1360.0 °C (1633.15 K, 2480.0 °F) ",
               "boilingPoint": "3041.0 °C (3314.15 K, 5505.8 °F) ",
               "numberOfProtons": " 65 ",
               "numberOfNeutrons": "94 ",
               "classification": "lanthanoids",
               "crystalStructure": "Hexagonal ",
               "density@293K": "8.27 g/cm3 ",
               "color": "silverish",
               "dateOfDiscovery": "1843 ",
               "discoverer": "Carl Mosander ",
               "nameOrigin": "Ytterby (a town in Sweden) ",
               "uses": "in color TVs ",
               "obtainedFrom": "with other rare earths "
        },
  {
            "numberOfEnergyLevels": 6,

            "firstEnergyLevel": 2 ,
            "secondEnergyLevel": 8 ,
            "thirdEnergyLevel": 18 ,
            "fourthEnergyLevel": 28 ,
            "fifthEnergyLevel": 8 ,
            "sixthEnergyLevel": 2,
            "seventhEnergyLevel": null,

               "Name": "Dysprosium ",
               "Symbol": "Dy ",
               "atomicNumber": "66 ",
               "atomicMass": "162.5 amu ",
               "meltingPoint": "1412.0 °C (1685.15 K, 2573.6 °F) ",
               "boilingPoint": "2562.0 °C (2835.15 K, 4643.6 °F) ",
               "numberOfProtons": " 66 ",
               "numberOfNeutrons": "97 ",
               "classification": "lanthanoids",
               "crystalStructure": "Hexagonal ",
               "density@293K": "8.536 g/cm3 ",
               "color": "Unknown",
               "dateOfDiscovery": "1886 ",
               "discoverer": "Paul Emile Lecoq de Boisbaudran ",
               "nameOrigin": "From the Greek word dysprositos (hard to get at) ",
               "uses": "nuclear reactors ",
               "obtainedFrom": "erbium, holmium "

        },
  {
            "numberOfEnergyLevels": 6,

            "firstEnergyLevel": 2 ,
            "secondEnergyLevel": 8 ,
            "thirdEnergyLevel": 18 ,
            "fourthEnergyLevel": 29 ,
            "fifthEnergyLevel": 8 ,
            "sixthEnergyLevel": 2,
            "seventhEnergyLevel": null,

               "Name": "Holmium ",
               "Symbol": "Ho ",
               "atomicNumber": "67 ",
               "atomicMass": "164.93031 amu ",
               "meltingPoint": "1470.0 °C (1743.15 K, 2678.0 °F) ",
               "boilingPoint": "2720.0 °C (2993.15 K, 4928.0 °F) ",
               "numberOfProtons": " 67 ",
               "numberOfNeutrons": "98 ",
               "classification": "lanthanoids",
               "crystalStructure": "Hexagonal ",
               "density@293K": "8.54 g/cm3 ",
               "color": "Silver",
        "dateOfDiscovery": "1878",
               "discoverer": "J.L. Soret ",
               "nameOrigin": "Form the Latin word Holmia (Stockholm) ",
               "uses": "nuclear reactors ",
               "obtainedFrom": "gadolinite "
        },
        {
            "numberOfEnergyLevels": 6,

            "firstEnergyLevel": 2 ,
            "secondEnergyLevel": 8 ,
            "thirdEnergyLevel": 18 ,
            "fourthEnergyLevel": 30 ,
            "fifthEnergyLevel": 8 ,
            "sixthEnergyLevel": 2,
            "seventhEnergyLevel": null,

               "Name": "Erbium ",
               "Symbol": "Er ",
               "atomicNumber": "68 ",
               "atomicMass": "167.26 amu ",
               "meltingPoint": "1522.0 °C (1795.15 K, 2771.6 °F) ",
               "boilingPoint": "2510.0 °C (2783.15 K, 4550.0 °F) ",
               "numberOfProtons": " 68 ",
               "numberOfNeutrons": "99 ",
               "classification": "lanthanoids",
               "crystalStructure": "Hexagonal ",
               "density@293K": "8.795 g/cm3 ",
               "color": "grayish",
               "dateOfDiscovery": "1843 ",
               "discoverer": "Carl Mosander ",
               "nameOrigin": "Ytterby (a town in Sweden) ",
               "uses": "ceramics ",
               "obtainedFrom": "heavier lanthanoidsminerals "
        },
        {
            "numberOfEnergyLevels": 6,

            "firstEnergyLevel": 2 ,
            "secondEnergyLevel": 8 ,
            "thirdEnergyLevel": 18 ,
            "fourthEnergyLevel": 31 ,
            "fifthEnergyLevel": 8 ,
            "sixthEnergyLevel": 2,
            "seventhEnergyLevel": null,

               "Name": "Thulium ",
               "Symbol": "Tm ",
               "atomicNumber": "69 ",
               "atomicMass": "168.9342 amu ",
               "meltingPoint": "1545.0 °C (1818.15 K, 2813.0 °F) ",
               "boilingPoint": "1727.0 °C (2000.15 K, 3140.6 °F) ",
               "numberOfProtons": " 69 ",
               "numberOfNeutrons": "100 ",
               "classification": "lanthanoids",
               "crystalStructure": "Hexagonal ",
               "density@293K": "9.321 g/cm3 ",
               "color": "silverish",
               "dateOfDiscovery": "1879 ",
               "discoverer": "Per Theodor Cleve ",
               "nameOrigin": "From Thule (ancient name of Scandinavia) ",
               "uses": "power for portable x-ray machines ",
               "obtainedFrom": "gadolinite, euxenite, xenotime "

        },
        {
            
            "numberOfEnergyLevels": 6,

            "firstEnergyLevel": 2 ,
            "secondEnergyLevel": 8 ,
            "thirdEnergyLevel": 18 ,
            "fourthEnergyLevel": 32 ,
            "fifthEnergyLevel": 8 ,
            "sixthEnergyLevel": 2,
            "seventhEnergyLevel": null,

               "Name": "Ytterbium ",
               "Symbol": "Yb ",
               "atomicNumber": "70 ",
               "atomicMass": "173.04 amu ",
               "meltingPoint": "824.0 °C (1097.15 K, 1515.2 °F) ",
               "boilingPoint": "1466.0 °C (1739.15 K, 2670.8 °F) ",
               "numberOfProtons": " 70 ",
               "numberOfNeutrons": "103 ",
               "classification": "lanthanoids",
               "crystalStructure": "Cubic ",
               "density@293K": "6.98 g/cm3 ",
               "color": "Silvery",
               "dateOfDiscovery": "1878 ",
               "discoverer": "Jean de Marignac ",
               "nameOrigin": "Ytterby (a town in Sweden) ",
               "uses": "metallurgical and chemical experiments ",
               "obtainedFrom": "yttria, monazite, gadolinite, xenotime "
        },
        {
            "numberOfEnergyLevels": 6,

            "firstEnergyLevel": 2 ,
            "secondEnergyLevel": 8 ,
            "thirdEnergyLevel": 18 ,
            "fourthEnergyLevel": 32 ,
            "fifthEnergyLevel": 9 ,
            "sixthEnergyLevel": 2,
            "seventhEnergyLevel": null,

               "Name": "Lutetium ",
               "Symbol": "Lu ",
               "atomicNumber": "71 ",
               "atomicMass": "174.967 amu ",
               "meltingPoint": "1656.0 °C (1929.15 K, 3012.8 °F) ",
               "boilingPoint": "3315.0 °C (3588.15 K, 5999.0 °F) ",
               "numberOfProtons": " 71 ",
               "numberOfNeutrons": "104 ",
               "classification": "lanthanoids",
               "crystalStructure": "Hexagonal ",
               "density@293K": "9.85 g/cm3 ",
               "color": "silvery",
               "dateOfDiscovery": "1907 ",
               "discoverer": "Georges Urbain ",
               "nameOrigin": "From Lutetia (ancient name of Paris) ",
               "uses": "No uses known ",
               "obtainedFrom": "gadolinite, xenotime "

        },
        {
            "numberOfEnergyLevels": null,
            "firstEnergyLevel": null,
            "secondEnergyLevel": null,
            "thirdEnergyLevel": null,
            "fourthEnergyLevel": null,
      "fifthEnergyLevel": null,
      "sixthEnergyLevel": null,
      "seventhEnergyLevel": null,

               "Name": null,
               "Symbol": null,
               "atomicNumber": null,
               "atomicMass": null,
               "meltingPoint": null,
               "boilingPoint": null,
               "numberOfProtons": null,
               "numberOfNeutrons": null, 
               "classification": "empty",
               "crystalStructure": null,
               "density@293K": null,
               "color": null,
               "dateOfDiscovery": null,
               "discoverer": null,
               "nameOrigin": null,
               "uses": null,
               "obtainedFrom": null
        }
]
