[
  {
    "numberOfEnergyLevels": 2,
    "firstEnergyLevel": 2 ,
    "secondEnergyLevel": 1,
    "thirdEnergyLevel": null,
    "fourthEnergyLevel": null,
    "fifthEnergyLevel": null,
    "sixthEnergyLevel": null,
    "seventhEnergyLevel": null,

    "Name": "Lithium ",
    "Symbol": "Li ",
    "atomicNumber": "3 ",
    "atomicMass": "6.941 amu ",
    "meltingPoint": "180.54 °C (453.69 K, 356.972 °F) ",
    "boilingPoint": "1347.0 °C (1620.15 K, 2456.6 °F) ",
    "numberOfProtons": " 3 ",
    "numberOfNeutrons": "4 ",
    "classification": "alkali-metals",
    "crystalStructure": "Cubic ",
    "density": "0.53 g/cm3 ",
    "color": "silvery",
    "dateOfDiscovery": "1817",
    "discoverer": "Johann Arfvedson ",
    "nameOrigin": "From the Greek word lithos (stone) ",
    "uses": "batteries, ceramics, lubricants ",
    "obtainedFrom": "passing electric charge through melted lithium chloride, spodumene"
  },
  {
    "numberOfEnergyLevels": 2,

    "firstEnergyLevel": 2 ,
    "secondEnergyLevel": 2,
    "thirdEnergyLevel": null,
    "fourthEnergyLevel": null,
    "fifthEnergyLevel": null,
    "sixthEnergyLevel": null,
    "seventhEnergyLevel": null,

    "Name": "Beryllium ",
    "Symbol": "Be ",
    "atomicNumber": "4 ",
    "atomicMass": "9.012182 amu ",
    "meltingPoint": "1278.0 °C (1551.15 K, 2332.4 °F) ",
    "boilingPoint": "2970.0 °C (3243.15 K, 5378.0 °F) ",
    "numberOfProtons": " 4 ",
    "numberOfNeutrons": "5 ",
    "classification": "alkaline-earth-metals",
    "crystalStructure": "Hexagonal ",
    "density": "1.8477 g/cm3 ",
    "color": "gray",
    "dateOfDiscovery": "1798 ",
    "discoverer": "Fredrich Wohler ",
    "nameOrigin": "From the mineral beryl ",
    "uses": "spacecraft, missiles, aircraft ",
    "obtainedFrom": "beryl, chrysoberyl "
  },
  {
    "numberOfEnergyLevels": null,
    "firstEnergyLevel": null,
    "secondEnergyLevel": null,
    "thirdEnergyLevel": null,
    "fourthEnergyLevel": null,
    "fifthEnergyLevel": null,
    "sixthEnergyLevel": null,
    "seventhEnergyLevel": null,

    "Name": null,
    "Symbol": null,
    "atomicNumber": null,
    "atomicMass": null,
    "meltingPoint": null,
    "boilingPoint": null,
    "numberOfProtons": null,
    "numberOfNeutrons": null, 
    "classification": "empty",
    "crystalStructure": null,
    "density": null,
    "color": null,
    "dateOfDiscovery": null,
    "discoverer": null,
    "nameOrigin": null,
    "uses": null,
    "obtainedFrom": null
  },
  {
    "numberOfEnergyLevels": null,
    "firstEnergyLevel": null,
    "secondEnergyLevel": null,
    "thirdEnergyLevel": null,
    "fourthEnergyLevel": null,
    "fifthEnergyLevel": null,
    "sixthEnergyLevel": null,
    "seventhEnergyLevel": null,

    "Name": null,
    "Symbol": null,
    "atomicNumber": null,
    "atomicMass": null,
    "meltingPoint": null,
    "boilingPoint": null,
    "numberOfProtons": null,
    "numberOfNeutrons": null, 
    "classification": "empty",
    "crystalStructure": null,
    "density": null,
    "color": null,
    "dateOfDiscovery": null,
    "discoverer": null,
    "nameOrigin": null,
    "uses": null,
    "obtainedFrom": null
  },
  {
    "numberOfEnergyLevels": null,
    "firstEnergyLevel": null,
    "secondEnergyLevel": null,
    "thirdEnergyLevel": null,
    "fourthEnergyLevel": null,
    "fifthEnergyLevel": null,
    "sixthEnergyLevel": null,
    "seventhEnergyLevel": null,

    "Name": null,
    "Symbol": null,
    "atomicNumber": null,
    "atomicMass": null,
    "meltingPoint": null,
    "boilingPoint": null,
    "numberOfProtons": null,
    "numberOfNeutrons": null, 
    "classification": "empty",
    "crystalStructure": null,
    "density": null,
    "color": null,
    "dateOfDiscovery": null,
    "discoverer": null,
    "nameOrigin": null,
    "uses": null,
    "obtainedFrom": null
  },
  {
    "numberOfEnergyLevels": null,
    "firstEnergyLevel": null,
    "secondEnergyLevel": null,
    "thirdEnergyLevel": null,
    "fourthEnergyLevel": null,
    "fifthEnergyLevel": null,
    "sixthEnergyLevel": null,
    "seventhEnergyLevel": null,

    "Name": null,
    "Symbol": null,
    "atomicNumber": null,
    "atomicMass": null,
    "meltingPoint": null,
    "boilingPoint": null,
    "numberOfProtons": null,
    "numberOfNeutrons": null, 
    "classification": "empty",
    "crystalStructure": null,
    "density": null,
    "color": null,
    "dateOfDiscovery": null,
    "discoverer": null,
    "nameOrigin": null,
    "uses": null,
    "obtainedFrom": null
  },
  {
    "numberOfEnergyLevels": null,
    "firstEnergyLevel": null,
    "secondEnergyLevel": null,
    "thirdEnergyLevel": null,
    "fourthEnergyLevel": null,
    "fifthEnergyLevel": null,
    "sixthEnergyLevel": null,
    "seventhEnergyLevel": null,

    "Name": null,
    "Symbol": null,
    "atomicNumber": null,
    "atomicMass": null,
    "meltingPoint": null,
    "boilingPoint": null,
    "numberOfProtons": null,
    "numberOfNeutrons": null, 
    "classification": "empty",
    "crystalStructure": null,
    "density": null,
    "color": null,
    "dateOfDiscovery": null,
    "discoverer": null,
    "nameOrigin": null,
    "uses": null,
    "obtainedFrom": null
  },
  {
    "numberOfEnergyLevels": null,
    "firstEnergyLevel": null,
    "secondEnergyLevel": null,
    "thirdEnergyLevel": null,
    "fourthEnergyLevel": null,
    "fifthEnergyLevel": null,
    "sixthEnergyLevel": null,
    "seventhEnergyLevel": null,

    "Name": null,
    "Symbol": null,
    "atomicNumber": null,
    "atomicMass": null,
    "meltingPoint": null,
    "boilingPoint": null,
    "numberOfProtons": null,
    "numberOfNeutrons": null, 
    "classification": "empty",
    "crystalStructure": null,
    "density": null,
    "color": null,
    "dateOfDiscovery": null,
    "discoverer": null,
    "nameOrigin": null,
    "uses": null,
    "obtainedFrom": null
  },
  {
    "numberOfEnergyLevels": null,
    "firstEnergyLevel": null,
    "secondEnergyLevel": null,
    "thirdEnergyLevel": null,
    "fourthEnergyLevel": null,
    "fifthEnergyLevel": null,
    "sixthEnergyLevel": null,
    "seventhEnergyLevel": null,

    "Name": null,
    "Symbol": null,
    "atomicNumber": null,
    "atomicMass": null,
    "meltingPoint": null,
    "boilingPoint": null,
    "numberOfProtons": null,
    "numberOfNeutrons": null, 
    "classification": "empty",
    "crystalStructure": null,
    "density": null,
    "color": null,
    "dateOfDiscovery": null,
    "discoverer": null,
    "nameOrigin": null,
    "uses": null,
    "obtainedFrom": null
  },
  {
    "numberOfEnergyLevels": null,
    "firstEnergyLevel": null,
    "secondEnergyLevel": null,
    "thirdEnergyLevel": null,
    "fourthEnergyLevel": null,
    "fifthEnergyLevel": null,
    "sixthEnergyLevel": null,
    "seventhEnergyLevel": null,

    "Name": null,
    "Symbol": null,
    "atomicNumber": null,
    "atomicMass": null,
    "meltingPoint": null,
    "boilingPoint": null,
    "numberOfProtons": null,
    "numberOfNeutrons": null, 
    "classification": "empty",
    "crystalStructure": null,
    "density": null,
    "color": null,
    "dateOfDiscovery": null,
    "discoverer": null,
    "nameOrigin": null,
    "uses": null,
    "obtainedFrom": null
  },
  {
    "numberOfEnergyLevels": null,
    "firstEnergyLevel": null,
    "secondEnergyLevel": null,
    "thirdEnergyLevel": null,
    "fourthEnergyLevel": null,
    "fifthEnergyLevel": null,
    "sixthEnergyLevel": null,
    "seventhEnergyLevel": null,

    "Name": null,
    "Symbol": null,
    "atomicNumber": null,
    "atomicMass": null,
    "meltingPoint": null,
    "boilingPoint": null,
    "numberOfProtons": null,
    "numberOfNeutrons": null, 
    "classification": "empty",
    "crystalStructure": null,
    "density": null,
    "color": null,
    "dateOfDiscovery": null,
    "discoverer": null,
    "nameOrigin": null,
    "uses": null,
    "obtainedFrom": null
  },
  {
    "numberOfEnergyLevels": null,
    "firstEnergyLevel": null,
    "secondEnergyLevel": null,
    "thirdEnergyLevel": null,
    "fourthEnergyLevel": null,
    "fifthEnergyLevel": null,
    "sixthEnergyLevel": null,
    "seventhEnergyLevel": null,

    "Name": null,
    "Symbol": null,
    "atomicNumber": null,
    "atomicMass": null,
    "meltingPoint": null,
    "boilingPoint": null,
    "numberOfProtons": null,
    "numberOfNeutrons": null, 
    "classification": "empty",
    "crystalStructure": null,
    "density": null,
    "color": null,
    "dateOfDiscovery": null,
    "discoverer": null,
    "nameOrigin": null,
    "uses": null,
    "obtainedFrom": null
  },
  {
    "numberOfEnergyLevels": 2,

    "firstEnergyLevel": 2 ,
    "secondEnergyLevel": 3,
    "thirdEnergyLevel": null,
    "fourthEnergyLevel": null,
    "fifthEnergyLevel": null,
    "sixthEnergyLevel": null,
    "seventhEnergyLevel": null,

    "Name": "Boron ",
    "Symbol": "B ",
    "atomicNumber": "5 ",
    "atomicMass": "10.811 amu ",
    "meltingPoint": "2300.0 °C (2573.15 K, 4172.0 °F) ",
    "boilingPoint": "2550.0 °C (2823.15 K, 4622.0 °F) ",
    "numberOfProtons": " 5 ",
    "numberOfNeutrons": "6 ",
    "classification": "metalloids",
    "crystalStructure": "Rhombohedral ",
    "density": "2.34 g/cm3 ",
    "color": "brownish",
    "dateOfDiscovery": "1808 ",
    "discoverer": "Sir Humphry Davy, J.L Gay-Lussac ",
    "nameOrigin": "From borax and carbon ",
    "uses": "heat resistant alloys ",
    "obtainedFrom": "kernite "
  },
  {
    "numberOfEnergyLevels": 2,

    "firstEnergyLevel": 2 ,
    "secondEnergyLevel": 4,
    "thirdEnergyLevel": null,
    "fourthEnergyLevel": null,
    "fifthEnergyLevel": null,
    "sixthEnergyLevel": null,
    "seventhEnergyLevel": null,

    "Name": "Carbon ",
    "Symbol": "C ",
    "atomicNumber": "6 ",
    "atomicMass": "12.0107 amu ",
    "meltingPoint": "3500.0 °C (3773.15 K, 6332.0 °F) ",
    "boilingPoint": "4827.0 °C (5100.15 K, 8720.6 °F) ",
    "numberOfProtons": " 6 ",
    "numberOfNeutrons": "6 ",
    "classification": "other-nonmetals",
    "crystalStructure": "Hexagonal ",
    "density": "2.62 g/cm3 ",
    "color": "May be black",
    "dateOfDiscovery": "Known to the ancients ",
    "discoverer": "Unknown ",
    "nameOrigin": "From the Latin carbo (coal) ",
    "uses": "steel, filters ",
    "obtainedFrom": "burning with insufficient oxygen "

  },
  {
    "numberOfEnergyLevels": 2,

    "firstEnergyLevel": 2 ,
    "secondEnergyLevel": 5,
    "thirdEnergyLevel": null,
    "fourthEnergyLevel": null,
    "fifthEnergyLevel": null,
    "sixthEnergyLevel": null,
    "seventhEnergyLevel": null,

    "Name": "Nitrogen ",
    "Symbol": "N ",
    "atomicNumber": "7 ",
    "atomicMass": "14.00674 amu ",
    "meltingPoint": "-209.9 °C (63.250008 K, -345.81998 °F) ",
    "boilingPoint": "-195.8 °C (77.35 K, -320.44 °F) ",
    "numberOfProtons": " 7 ",
    "numberOfNeutrons": "7 ",
    "classification": "other-nonmetals",
    "crystalStructure": "Hexagonal ",
    "density": "1.2506 g/cm3 ",
    "color": "colorless",
    "dateOfDiscovery": "1772 ",
    "discoverer": "Daniel Rutherford ",
    "nameOrigin": "Greek ",
    "uses": "forms most of atmosphere ",
    "obtainedFrom": "from liquid air "
  },
  {
    "numberOfEnergyLevels": 2,

    "firstEnergyLevel": 2 ,
    "secondEnergyLevel": 6,
    "thirdEnergyLevel": null,
    "fourthEnergyLevel": null,
    "fifthEnergyLevel": null,
    "sixthEnergyLevel": null,
    "seventhEnergyLevel": null,

    "Name": "Oxygen ",
    "Symbol": "O ",
    "atomicNumber": "8 ",
    "atomicMass": "15.9994 amu ",
    "meltingPoint": "-218.4 °C (54.750008 K, -361.12 °F) ",
    "boilingPoint": "-183.0 °C (90.15 K, -297.4 °F) ",
    "numberOfProtons": " 8 ",
    "numberOfNeutrons": "8 ",
    "classification": "other-nonmetals",
    "crystalStructure": "Cubic ",
    "density": "1.429 g/cm3 ",
    "color": "colorless",
    "dateOfDiscovery": "1774 ",
    "discoverer": "Joseph Priestly ",
    "nameOrigin": "From the Greek words oxus (acid) and gennan (generate) ",
    "uses": "supports life ",
    "obtainedFrom": "from liquid air "

  },
  {
    "numberOfEnergyLevels": 2,

    "firstEnergyLevel": 2 ,
    "secondEnergyLevel": 7,
    "thirdEnergyLevel": null,
    "fourthEnergyLevel": null,
    "fifthEnergyLevel": null,
    "sixthEnergyLevel": null,
    "seventhEnergyLevel": null,

    "Name": "Fluorine ",
    "Symbol": "F ",
    "atomicNumber": "9 ",
    "atomicMass": "18.998404 amu ",
    "meltingPoint": "-219.62 °C (53.530006 K, -363.31598 °F) ",
    "boilingPoint": "-188.14 °C (85.01 K, -306.652 °F) ",
    "numberOfProtons": " 9 ",
    "numberOfNeutrons": "10 ",
    "classification": "halogens",
    "crystalStructure": "Cubic ",
    "density": "1.696 g/cm3 ",
    "color": "Greenish",
    "dateOfDiscovery": "1886",
    "discoverer": "Joseph Henri Moissan ",
    "nameOrigin": "From the Latin word fluo (flow) ",
    "uses": "Refrigerants ",
    "obtainedFrom": "mineral fluorite "
  },
  {
    "numberOfEnergyLevels": 2,

    "firstEnergyLevel": 2 ,
    "secondEnergyLevel": 8,
    "thirdEnergyLevel": null,
    "fourthEnergyLevel": null,
    "fifthEnergyLevel": null,
    "sixthEnergyLevel": null,
    "seventhEnergyLevel": null,

    "Name": "Neon ",
    "Symbol": "Ne ",
    "atomicNumber": "10 ",
    "atomicMass": "20.1797 amu ",
    "meltingPoint": "-248.6 °C (24.549994 K, -415.48 °F) ",
    "boilingPoint": "-246.1 °C (27.049994 K, -410.98 °F) ",
    "numberOfProtons": " 10 ",
    "numberOfNeutrons": "10 ",
    "classification": "noble-gases",
    "crystalStructure": "Cubic ",
    "density": "0.901 g/cm3 ",
    "color": "colorless",
    "dateOfDiscovery": "1898 ",
    "discoverer": "Sir William Ramsay ",
    "nameOrigin": "Form the Greek word neos (new) ",
    "uses": "lighting ",
    "obtainedFrom": "liquid air"
  }
]


