[
  {
            "numberOfEnergyLevels": 5,

            "firstEnergyLevel": 2 ,
            "secondEnergyLevel": 8 ,
            "thirdEnergyLevel": 18 ,
            "fourthEnergyLevel": 8 ,
            "fifthEnergyLevel": 1,
            "sixthEnergyLevel": null,
            "seventhEnergyLevel": null,
               "Name": "Rubidium ",
               "Symbol": "Rb ",
               "atomicNumber": "37 ",
               "atomicMass": "85.4678 amu ",
               "meltingPoint": "38.89 °C (312.04 K, 102.002 °F) ",
               "boilingPoint": "688.0 °C (961.15 K, 1270.4 °F) ",
               "numberOfProtons": " 37 ",
               "numberOfNeutrons": "48 ",
               "classification": "alkali-metals",
               "crystalStructure": "Cubic ",
               "density@293K": "1.532 g/cm3 ",
               "color": "silver",
        "dateOfDiscovery": "1861",
               "discoverer": "R. Bunsen ",
               "nameOrigin": "From the Latin word rubidus (red) ",
               "uses": "catalyst, photocells ",
               "obtainedFrom": "lithium production "
        },
        {
            "numberOfEnergyLevels": 5,

            "firstEnergyLevel": 2 ,
            "secondEnergyLevel": 8 ,
            "thirdEnergyLevel": 18 ,
            "fourthEnergyLevel": 8 ,
            "fifthEnergyLevel": 2,
            "sixthEnergyLevel": null,
            "seventhEnergyLevel": null,
               "Name": "Strontium ",
               "Symbol": "Sr ",
               "atomicNumber": "38 ",
               "atomicMass": "87.62 amu ",
               "meltingPoint": "769.0 °C (1042.15 K, 1416.2 °F) ",
               "boilingPoint": "1384.0 °C (1657.15 K, 2523.2 °F) ",
               "numberOfProtons": " 38 ",
               "numberOfNeutrons": "50 ",
               "classification": "alkaline-earth-metals",
               "crystalStructure": "Cubic ",
               "density@293K": "2.54 g/cm3 ",
               "color": "yellowish",
               "dateOfDiscovery": "1790 ",
               "discoverer": "A. Crawford ",
               "nameOrigin": "After Strotian (a Scottish town) ",
               "uses": "flares, fireworks, crimson color ",
               "obtainedFrom": "celestite, strontianite "

        },
        {
            "numberOfEnergyLevels": 5,

            "firstEnergyLevel": 2 ,
            "secondEnergyLevel": 8 ,
            "thirdEnergyLevel": 18 ,
            "fourthEnergyLevel": 9 ,
            "fifthEnergyLevel": 2,
            "sixthEnergyLevel": null,
            "seventhEnergyLevel": null,
               "Name": "Yttrium ",
               "Symbol": "Y ",
               "atomicNumber": "39 ",
               "atomicMass": "88.90585 amu ",
               "meltingPoint": "1523.0 °C (1796.15 K, 2773.4 °F) ",
               "boilingPoint": "3337.0 °C (3610.15 K, 6038.6 °F) ",
               "numberOfProtons": " 39 ",
               "numberOfNeutrons": "50 ",
               "classification": "transition-metals",
               "crystalStructure": "Hexagonal ",
               "density@293K": "4.469 g/cm3 ",
               "color": "silvery",
               "dateOfDiscovery": "1794 ",
               "discoverer": "Johann Gadolin ",
               "nameOrigin": "After Ytterby (a town in Sweden) ",
               "uses": "color TVs, radars ",
               "obtainedFrom": "monazite, xenotime, yettriac "
        },
        {
            "numberOfEnergyLevels": 5,

            "firstEnergyLevel": 2 ,
            "secondEnergyLevel": 8 ,
            "thirdEnergyLevel": 18 ,
            "fourthEnergyLevel": 10 ,
            "fifthEnergyLevel": 2,
            "sixthEnergyLevel": null,
            "seventhEnergyLevel": null,
               "Name": "Zirconium ",
               "Symbol": "Zr ",
               "atomicNumber": "40 ",
               "atomicMass": "91.224 amu ",
               "meltingPoint": "1852.0 °C (2125.15 K, 3365.6 °F) ",
               "boilingPoint": "4377.0 °C (4650.15 K, 7910.6 °F) ",
               "numberOfProtons": " 40 ",
               "numberOfNeutrons": "51 ",
               "classification": "transition-metals",
               "crystalStructure": "Hexagonal ",
               "density@293K": "6.49 g/cm3 ",
               "color": "Grayish",
        "dateOfDiscovery": "1789",
               "discoverer": "Martin Klaproth ",
               "nameOrigin": "zircon (mineral) ",
               "uses": "nuclear applications ",
               "obtainedFrom": "zircon, baddeleyite "
        },
        {
            "numberOfEnergyLevels": 5,

            "firstEnergyLevel": 2 ,
            "secondEnergyLevel": 8 ,
            "thirdEnergyLevel": 18 ,
            "fourthEnergyLevel": 12 ,
            "fifthEnergyLevel": 1,
            "sixthEnergyLevel": null,
            "seventhEnergyLevel": null,
               "Name": "Niobium ",
               "Symbol": "Nb ",
               "atomicNumber": "41 ",
               "atomicMass": "92.90638 amu ",
               "meltingPoint": "2468.0 °C (2741.15 K, 4474.4 °F) ",
               "boilingPoint": "4927.0 °C (5200.15 K, 8900.6 °F) ",
               "numberOfProtons": " 41 ",
               "numberOfNeutrons": "52 ",
               "classification": "transition-metals",
               "crystalStructure": "Cubic ",
               "density@293K": "8.57 g/cm3 ",
               "color": "white",
               "dateOfDiscovery": "1801 ",
               "discoverer": "Charles Hatchet ",
               "nameOrigin": "After Niobe, daughter of mythical king (Tantalus) ",
               "uses": "No uses known ",
               "obtainedFrom": "columbite "
        },
        {
            "numberOfEnergyLevels": 5,

            "firstEnergyLevel": 2 ,
            "secondEnergyLevel": 8 ,
            "thirdEnergyLevel": 18 ,
            "fourthEnergyLevel": 13 ,
            "fifthEnergyLevel": 1,
            "sixthEnergyLevel": null,
            "seventhEnergyLevel": null,
               "Name": "Molybdenum ",
               "Symbol": "Mo ",
               "atomicNumber": "42 ",
               "atomicMass": "95.94 amu ",
               "meltingPoint": "2617.0 °C (2890.15 K, 4742.6 °F) ",
               "boilingPoint": "4612.0 °C (4885.15 K, 8333.6 °F) ",
               "numberOfProtons": " 42 ",
               "numberOfNeutrons": "54 ",
               "classification": "transition-metals",
               "crystalStructure": "Cubic ",
               "density@293K": "10.22 g/cm3 ",
               "color": "silverish",
               "dateOfDiscovery": "1778 ",
               "discoverer": "Carl Wilhelm Scheele ",
               "nameOrigin": "From the Greek word molubdos (lead) ",
               "uses": "aircraft, missiles ",
               "obtainedFrom": "molybdenite, wulfenite "
        },
        {
            "numberOfEnergyLevels": 5,

            "firstEnergyLevel": 2 ,
            "secondEnergyLevel": 8 ,
            "thirdEnergyLevel": 18 ,
            "fourthEnergyLevel": 14 ,
            "fifthEnergyLevel": 1,
            "sixthEnergyLevel": null,
            "seventhEnergyLevel": null,
               "Name": "Technetium ",
               "Symbol": "Tc ",
               "atomicNumber": "43 ",
               "atomicMass": "(98.0) amu ",
               "meltingPoint": "2200.0 °C (2473.15 K, 3992.0 °F) ",
               "boilingPoint": "4877.0 °C (5150.15 K, 8810.6 °F) ",
               "numberOfProtons": " 43 ",
               "numberOfNeutrons": "55 ",
               "classification": "transition-metals",
               "crystalStructure": "Hexagonal ",
               "density@293K": "11.5 g/cm3 ",
               "color": "Unknown",
               "dateOfDiscovery": "1937 ",
               "discoverer": "Carlo Perrier ",
               "nameOrigin": "From the Greek word technêtos (artificial) ",
               "uses": "Tc-99m is used for radioactive tracing in medicine ",
               "obtainedFrom": "Man-made"
        },
        {
            "numberOfEnergyLevels": 5,

            "firstEnergyLevel": 2 ,
            "secondEnergyLevel": 8 ,
            "thirdEnergyLevel": 18 ,
            "fourthEnergyLevel": 15 ,
            "fifthEnergyLevel": 1,
            "sixthEnergyLevel": null,
            "seventhEnergyLevel": null,
               "Name": "Ruthenium ",
               "Symbol": "Ru ",
               "atomicNumber": "44 ",
               "atomicMass": "101.07 amu ",
               "meltingPoint": "2250.0 °C (2523.15 K, 4082.0 °F) ",
               "boilingPoint": "3900.0 °C (4173.15 K, 7052.0 °F) ",
               "numberOfProtons": " 44 ",
               "numberOfNeutrons": "57 ",
               "classification": "transition-metals",
               "crystalStructure": "Hexagonal ",
               "density@293K": "12.2 g/cm3 ",
               "color": "silvery",
               "dateOfDiscovery": "1844 ",
               "discoverer": "Karl Klaus ",
               "nameOrigin": "From the Latin word Ruthenia (Russia) ",
               "uses": "platinum alloys ",
               "obtainedFrom": "pentlandite, pyroxinite "

        },
        {
            "numberOfEnergyLevels": 5,

            "firstEnergyLevel": 2 ,
            "secondEnergyLevel": 8 ,
            "thirdEnergyLevel": 18 ,
            "fourthEnergyLevel": 16 ,
            "fifthEnergyLevel": 1,
            "sixthEnergyLevel": null,
            "seventhEnergyLevel": null,
               "Name": "Rhodium ",
               "Symbol": "Rh ",
               "atomicNumber": "45 ",
               "atomicMass": "102.9055 amu ",
               "meltingPoint": "1966.0 °C (2239.15 K, 3570.8 °F) ",
               "boilingPoint": "3727.0 °C (4000.15 K, 6740.6 °F) ",
               "numberOfProtons": " 45 ",
               "numberOfNeutrons": "58 ",
               "classification": "transition-metals",
               "crystalStructure": "Cubic ",
               "density@293K": "12.41 g/cm3 ",
               "color": "silverish",
               "dateOfDiscovery": "1803 ",
               "discoverer": "William Wollaston ",
               "nameOrigin": "From the Greek word rhodon (rose) ",
               "uses": "coatings ",
               "obtainedFrom": "by-product of nickel production "
        },
        {
            "numberOfEnergyLevels": 5,

            "firstEnergyLevel": 2 ,
            "secondEnergyLevel": 8 ,
            "thirdEnergyLevel": 18 ,
            "fourthEnergyLevel": 18 ,
            "fifthEnergyLevel": 0,
            "sixthEnergyLevel": null,
            "seventhEnergyLevel": null,
               "Name": "Palladium ",
               "Symbol": "Pd ",
               "atomicNumber": "46 ",
               "atomicMass": "106.42 amu ",
               "meltingPoint": "1552.0 °C (1825.15 K, 2825.6 °F) ",
               "boilingPoint": "2927.0 °C (3200.15 K, 5300.6 °F) ",
               "numberOfProtons": " 46 ",
               "numberOfNeutrons": "60 ",
               "classification": "transition-metals",
               "crystalStructure": "Cubic ",
               "density@293K": "12.02 g/cm3 ",
               "color": "white",
        "dateOfDiscovery": "1803",
                "discoverer": "William Wollaston ",
               "nameOrigin": "From the Greek goddess of wisdom (Pallas) and after an asteroid ",
               "uses": "jewelry, medical instruments ",
               "obtainedFrom": "platinum, nickel, copper, mercury ores "
        },
        {
            "numberOfEnergyLevels": 5,

            "firstEnergyLevel": 2 ,
            "secondEnergyLevel": 8 ,
            "thirdEnergyLevel": 18 ,
            "fourthEnergyLevel": 18 ,
            "fifthEnergyLevel": 1,
            "sixthEnergyLevel": null,
            "seventhEnergyLevel": null,
               "Name": "Silver ",
               "Symbol": "Ag ",
               "atomicNumber": "47 ",
               "atomicMass": "107.8682 amu ",
               "meltingPoint": "961.93 °C (1235.08 K, 1763.474 °F) ",
               "boilingPoint": "2212.0 °C (2485.15 K, 4013.6 °F) ",
               "numberOfProtons": " 47 ",
               "numberOfNeutrons": "61 ",
               "classification": "transition-metals",
               "crystalStructure": "Cubic ",
               "density@293K": "10.5 g/cm3 ",
               "color": "silver",
               "dateOfDiscovery": "Known to the ancients ",
                "discoverer": "Unknown ",
               "nameOrigin": "From the Old English word seolfor (silver) ",
               "symbolOrigin": "From the Latin word argentum (silver) ",
               "uses": "jewelry, photography, electrical conductor ",
               "obtainedFrom": "ores (argentite, light ruby silver, dark ruby silver, brittle silver) "
        },
        {
            "numberOfEnergyLevels": 5,

            "firstEnergyLevel": 2 ,
            "secondEnergyLevel": 8 ,
            "thirdEnergyLevel": 18 ,
            "fourthEnergyLevel": 18 ,
            "fifthEnergyLevel": 2,
            "sixthEnergyLevel": null,
            "seventhEnergyLevel": null,
               "Name": "Cadmium ",
               "Symbol": "Cd ",
               "atomicNumber": "48 ",
               "atomicMass": "112.411 amu ",
               "meltingPoint": "320.9 °C (594.05 K, 609.62 °F) ",
               "boilingPoint": "765.0 °C (1038.15 K, 1409.0 °F) ",
               "numberOfProtons": " 48 ",
               "numberOfNeutrons": "64 ",
               "classification": "transition-metals",
               "crystalStructure": "Hexagonal ",
               "density@293K": "8.65 g/cm3 ",
               "color": "Silvery",
               "dateOfDiscovery": "1817 ",
                "discoverer": "Fredrich Stromeyer ",
               "nameOrigin": "From the Greek word kadmeia (ancient name for calamine) and from the Latin word cadmia ",
               "uses": "poisonous, nickel-cadmium batteries ",
               "obtainedFrom": "by-product of zinc refining "

        },
        {
            "numberOfEnergyLevels": 5,

            "firstEnergyLevel": 2 ,
            "secondEnergyLevel": 8 ,
            "thirdEnergyLevel": 18 ,
            "fourthEnergyLevel": 18 ,
            "fifthEnergyLevel": 3,
            "sixthEnergyLevel": null,
            "seventhEnergyLevel": null,
               "Name": "Indium ",
               "Symbol": "In ",
               "atomicNumber": "49 ",
               "atomicMass": "114.818 amu ",
               "meltingPoint": "156.61 °C (429.76 K, 313.898 °F) ",
               "boilingPoint": "2000.0 °C (2273.15 K, 3632.0 °F) ",
               "numberOfProtons": " 49 ",
               "numberOfNeutrons": "66 ",
               "classification": "post-transition-metals",
               "crystalStructure": "Tetragonal ",
               "density@293K": "7.31 g/cm3 ",
               "color": "Silverish",
               "dateOfDiscovery": "1863 ",
               "discoverer": "Ferdinand Reich ",
               "nameOrigin": "From the Indigo color seen in its spectrum ",
               "uses": "coating of high-speed bearings ",
               "obtainedFrom": "by-product of zinc refining "
        },
        {
            "numberOfEnergyLevels": 5,

            "firstEnergyLevel": 2 ,
            "secondEnergyLevel": 8 ,
            "thirdEnergyLevel": 18 ,
            "fourthEnergyLevel": 18 ,
            "fifthEnergyLevel": 4,
            "sixthEnergyLevel": null,
            "seventhEnergyLevel": null,
               "Name": "Tin ",
               "Symbol": "Sn ",
               "atomicNumber": "50 ",
               "atomicMass": "118.71 amu ",
               "meltingPoint": "231.9 °C (505.05 K, 449.41998 °F) ",
               "boilingPoint": "2270.0 °C (2543.15 K, 4118.0 °F) ",
               "numberOfProtons": " 50 ",
               "numberOfNeutrons": "69 ",
               "classification": "post-transition-metals",
               "crystalStructure": "Tetragonal ",
               "density@293K": "7.31 g/cm3 ",
               "color": "white",
               "dateOfDiscovery": "Known to the ancients ",
               "discoverer": "Unknown ",
               "nameOrigin": "Latin ",
               "symbolOrigin": "From the Latin word stannum (tin) ",
               "uses": "coating for steel cans ",
               "obtainedFrom": "ore cassiterite "
        },
        {
            "numberOfEnergyLevels": 5,

            "firstEnergyLevel": 2 ,
            "secondEnergyLevel": 8 ,
            "thirdEnergyLevel": 18 ,
            "fourthEnergyLevel": 18 ,
            "fifthEnergyLevel": 5,
            "sixthEnergyLevel": null,
            "seventhEnergyLevel": null,
               "Name": "Antimony ",
               "Symbol": "Sb ",
               "atomicNumber": "51 ",
               "atomicMass": "121.76 amu ",
               "meltingPoint": "630.0 °C (903.15 K, 1166.0 °F) ",
               "boilingPoint": "1750.0 °C (2023.15 K, 3182.0 °F) ",
               "numberOfProtons": " 51 ",
               "numberOfNeutrons": "71 ",
               "classification": "metalloids",
               "crystalStructure": "Rhombohedral ",
               "density@293K": "6.684 g/cm3 ",
               "color": "bluish",
               "dateOfDiscovery": "Known to the ancients ",
                "discoverer": "Unknown ",
               "nameOrigin": "From the Greek words anti (opposed) and monos (solitude), hence not alone ",
               "symbolOrigin": "From stibium, the ancient name for antimony sulfide ",
               "uses": "hardens lead, plastics, chemicals ",
               "obtainedFrom": "stibnite, valentinite "
        },
        {
            "numberOfEnergyLevels": 5,

            "firstEnergyLevel": 2 ,
            "secondEnergyLevel": 8 ,
            "thirdEnergyLevel": 18 ,
            "fourthEnergyLevel": 18 ,
            "fifthEnergyLevel": 6,
            "sixthEnergyLevel": null,
            "seventhEnergyLevel": null,
               "Name": "Tellurium ",
               "Symbol": "Te ",
               "atomicNumber": "52 ",
               "atomicMass": "127.6 amu ",
               "meltingPoint": "449.5 °C (722.65 K, 841.1 °F) ",
               "boilingPoint": "989.8 °C (1262.95 K, 1813.64 °F) ",
               "numberOfProtons": " 52 ",
               "numberOfNeutrons": "76 ",
               "classification": "metalloids",
               "crystalStructure": "Hexagonal ",
               "density@293K": "6.24 g/cm3 ",
               "color": "silverish",
        "dateOfDiscovery": "1782",
                "discoverer": "Franz Muller von Reichenstein ",
               "nameOrigin": "From the Greek word tellus (Earth) ",
               "uses": "coloring of glass and ceramics, thermoelectric devices ",
               "obtainedFrom": "by-product of refining of lead and copper "
        },
        {
            "numberOfEnergyLevels": 5,

            "firstEnergyLevel": 2 ,
            "secondEnergyLevel": 8 ,
            "thirdEnergyLevel": 18 ,
            "fourthEnergyLevel": 18 ,
            "fifthEnergyLevel": 7,
            "sixthEnergyLevel": null,
            "seventhEnergyLevel": null,
               "Name": "Iodine ",
               "Symbol": "I ",
               "atomicNumber": "53 ",
               "atomicMass": "126.90447 amu ",
               "meltingPoint": "113.5 °C (386.65 K, 236.3 °F) ",
               "boilingPoint": "184.0 °C (457.15 K, 363.2 °F) ",
               "numberOfProtons": " 53 ",
               "numberOfNeutrons": "74 ",
               "classification": "halogens",
               "crystalStructure": "Orthorhombic ",
               "density@293K": "4.93 g/cm3 ",
               "color": "blackish",
               "dateOfDiscovery": "1811 ",
               "discoverer": "Bernard Courtois ",
               "nameOrigin": "From the Greek word iôdes (violet) ",
               "uses": "required in humans ",
               "obtainedFrom": "sodium and potassium compounds"
        },
        {
            "numberOfEnergyLevels": 5,

            "firstEnergyLevel": 2 ,
            "secondEnergyLevel": 8 ,
            "thirdEnergyLevel": 18 ,
            "fourthEnergyLevel": 18 ,
            "fifthEnergyLevel": 8,
            "sixthEnergyLevel": null,
            "seventhEnergyLevel": null,
               "Name": "Xenon ",
               "Symbol": "Xe ",
               "atomicNumber": "54 ",
               "atomicMass": "131.29 amu ",
               "meltingPoint": "-111.9 °C (161.25 K, -169.42 °F) ",
               "boilingPoint": "-108.1 °C (165.05 K, -162.58 °F) ",
               "numberOfProtons": " 54 ",
               "numberOfNeutrons": "77 ",
               "classification": "noble-gases",
               "crystalStructure": "Cubic ",
               "density@293K": "5.8971 g/cm3 ",
               "color": "Colorless Gas",
        "dateOfDiscovery": "1898",
               "discoverer": "Sir William Ramsay ",
               "nameOrigin": "From the Greek word xenon (stranger) ",
               "uses": "powerful lamps, bubble chambers ",
               "obtainedFrom": "liquid air "
        }
]
